/*--------------------------------*- C++ -*----------------------------------*\
  =========                 |
  \\      /  F ield         | OpenFOAM: The Open Source CFD Toolbox
   \\    /   O peration     | Website:  https://openfoam.org
    \\  /    A nd           | Version:  11
     \\/     M anipulation  |
\*---------------------------------------------------------------------------*/
FoamFile
{
    format      ascii;
    class       volVectorField;
    location    "1138";
    object      wallShearStress;
}
// * * * * * * * * * * * * * * * * * * * * * * * * * * * * * * * * * * * * * //

dimensions      [0 2 -2 0 0 0 0];

internalField   uniform (0 0 0);

boundaryField
{
    wall-fluid_domain
    {
        type            calculated;
        value           nonuniform List<vector> 
43271
(
(-2.1166452e-05 8.1634574e-07 1.0754284e-05)
(-1.9422012e-05 6.3501256e-07 1.0398332e-05)
(-4.868486e-05 -2.3086958e-06 2.1513737e-05)
(-2.82667e-05 3.0435867e-07 1.3127147e-05)
(5.9038322e-06 -1.5457637e-07 -2.4274409e-06)
(-2.6445428e-05 4.2688679e-07 1.199941e-05)
(-4.8713197e-05 -4.970872e-06 2.2116663e-05)
(-2.4785597e-05 -1.3074847e-06 1.2966247e-05)
(-2.6164802e-05 -5.3523584e-07 1.3362779e-05)
(-3.1110649e-05 -1.37899e-06 1.4996263e-05)
(-4.6255232e-05 -4.4906875e-06 2.3501475e-05)
(-2.1812659e-05 -2.6592265e-06 1.081735e-05)
(-3.3213485e-05 1.4227832e-06 1.5430045e-05)
(-3.255323e-05 2.3156512e-06 1.5395795e-05)
(-3.3523882e-05 -9.7365732e-07 1.7014732e-05)
(-2.9152496e-05 1.1051234e-06 1.2649176e-05)
(-5.4217695e-05 1.1340012e-05 5.1686104e-06)
(-2.4598467e-05 1.0514308e-06 1.2996757e-05)
(-2.8105579e-05 -4.5453246e-07 1.4120053e-05)
(-3.3351405e-05 2.1723828e-06 1.5466983e-05)
(-2.7835409e-05 9.8702413e-07 1.2483497e-05)
(-2.6310593e-05 -1.3586322e-06 1.3965665e-05)
(-2.1171489e-05 -9.7618079e-07 1.010224e-05)
(-2.4517864e-05 -1.0165335e-06 1.3844415e-05)
(-3.7546548e-05 1.1049433e-06 1.7292511e-05)
(-2.4980705e-05 -9.2712314e-07 1.5523031e-05)
(-2.7970743e-05 -8.9045148e-08 1.5182489e-05)
(-2.8908571e-05 1.5560777e-06 1.3365669e-05)
(-3.0047721e-05 3.638115e-06 1.4350757e-05)
(-3.2740044e-05 -3.2658924e-07 1.6878474e-05)
(-2.8006205e-05 -1.4131963e-06 1.3205357e-05)
(-2.3797189e-05 -8.2701125e-07 1.3286246e-05)
(-3.6191616e-05 2.6399008e-06 9.7623e-06)
(-2.3867602e-05 -1.6030371e-06 1.2154775e-05)
(-2.3152915e-05 3.6516485e-06 1.1906839e-05)
(-2.3535628e-05 -4.8916824e-07 1.2161416e-05)
(-2.4371414e-05 -2.7919055e-06 1.3864603e-05)
(-2.3894304e-05 -1.9068186e-06 1.2642663e-05)
(-2.805786e-05 -1.1565797e-06 1.4946879e-05)
(-2.6409876e-05 -1.1656138e-07 1.4584118e-05)
(-2.6497826e-05 -2.8786132e-06 1.4315924e-05)
(-2.4797219e-05 -1.285597e-06 1.2161407e-05)
(-2.6160071e-05 -6.4812002e-07 1.2226235e-05)
(-2.2261218e-05 -4.1263702e-06 1.2156111e-05)
(-2.9142067e-05 6.7042004e-07 1.4331004e-05)
(-1.9295341e-05 6.3507002e-07 9.7943557e-06)
(-1.8729253e-05 -9.0335164e-07 9.5752373e-06)
(-2.9143947e-05 2.5661793e-07 1.50281e-05)
(-2.5072289e-05 -1.3946203e-06 1.1362263e-05)
(-2.3954423e-05 1.0371599e-06 1.3329509e-05)
(-2.9016923e-05 5.230687e-08 1.2233031e-05)
(-3.1427735e-05 2.3191938e-06 1.5533281e-05)
(-2.3369934e-05 -1.6113525e-06 1.2801471e-05)
(-2.0141951e-05 -8.8939408e-07 9.1955954e-06)
(-3.1344774e-05 -1.2935484e-06 1.6357754e-05)
(-2.7948689e-05 1.4116962e-07 1.263366e-05)
(-2.1149683e-05 -5.8322941e-07 1.0940007e-05)
(-2.7383894e-05 -7.2597479e-07 1.4133375e-05)
(-2.3106364e-05 -1.5891183e-06 1.2131107e-05)
(-2.7696312e-05 -2.9272945e-06 1.3460801e-05)
(-2.8234764e-05 -1.9894961e-06 1.397008e-05)
(-1.8447231e-05 -3.9181791e-07 8.600542e-06)
(-2.7678322e-05 -1.0913628e-06 1.3642853e-05)
(-2.7271171e-05 1.461757e-06 1.2775265e-05)
(-2.9731752e-05 2.9603249e-07 1.3571145e-05)
(-2.9584194e-05 -1.2757828e-06 1.5886591e-05)
(-2.5513919e-05 8.7025104e-07 1.1616942e-05)
(-2.875562e-05 -3.5814175e-07 1.4536812e-05)
(-2.1311269e-05 1.7055247e-07 1.0903982e-05)
(-4.8970691e-05 1.0514544e-05 2.6547562e-06)
(-3.2030011e-05 1.9795397e-06 1.5096297e-05)
(-2.1435928e-05 -3.1290107e-07 1.0803233e-05)
(-3.3452608e-05 3.1113607e-06 1.4800594e-05)
(-3.0709516e-05 1.3283833e-08 1.5193187e-05)
(-1.9660422e-05 7.1215586e-06 2.5636424e-06)
(-2.8550687e-05 -1.4382066e-06 1.2341038e-05)
(-1.9295795e-05 -5.4011916e-07 9.3456508e-06)
(-2.5666589e-05 -1.1171263e-06 1.2779773e-05)
(-2.4329385e-05 -2.1185048e-06 1.3173778e-05)
(-2.7438765e-05 1.6720238e-06 1.3042874e-05)
(-1.989755e-05 9.8654295e-07 9.8727218e-06)
(-2.7445192e-05 5.478791e-07 1.3419579e-05)
(-2.4362427e-05 -4.4846206e-07 1.1631454e-05)
(-2.7447386e-05 6.569408e-07 1.3495064e-05)
(-2.2840882e-05 2.3597081e-06 1.1468874e-05)
(-2.2327815e-05 1.0398694e-05 5.747038e-06)
(-2.3481474e-05 -7.6642441e-07 1.2038879e-05)
(8.791192e-06 1.5459883e-06 -3.4085662e-06)
(-2.0635941e-05 3.4021522e-06 1.1351104e-05)
(-2.3424325e-05 -4.9414362e-07 1.1943342e-05)
(-2.3029188e-05 3.0782166e-06 1.1723135e-05)
(8.031685e-06 1.0347973e-06 -4.6502815e-06)
(-1.8370806e-05 -8.8095327e-07 9.3928234e-06)
(-3.2383811e-05 9.690829e-06 8.7812166e-06)
(-2.5132178e-05 2.9024817e-06 1.2896764e-05)
(-2.1463423e-05 -6.5234971e-08 1.1540146e-05)
(-3.261315e-05 1.7063495e-06 1.5463253e-05)
(-2.1419572e-05 1.9987925e-07 1.068605e-05)
(-2.1660957e-05 6.0412886e-07 1.113283e-05)
(-1.9888203e-05 1.3540612e-06 1.0195539e-05)
(-2.3283976e-05 3.9115253e-06 1.2402823e-05)
(-2.1714625e-05 -1.2940764e-06 1.1642175e-05)
(-2.5540359e-05 -7.8435225e-07 1.2268751e-05)
(-1.9742001e-05 -5.2666417e-07 9.0705885e-06)
(-1.9624106e-05 -1.9773219e-07 1.0320097e-05)
(-2.5942574e-05 -2.3879644e-06 1.2282557e-05)
(-2.0512023e-05 -1.5405886e-06 1.0054513e-05)
(-2.4130928e-05 3.8594164e-06 1.1378523e-05)
(-2.1363262e-05 -7.327726e-07 1.119622e-05)
(-2.3002937e-05 3.3398599e-07 1.0626752e-05)
(-1.9305307e-05 -2.3592628e-07 9.2287598e-06)
(-1.9597468e-05 -9.6899344e-07 1.1293401e-05)
(-5.3183474e-05 8.965313e-06 4.3731209e-06)
(-2.5052909e-05 3.1746696e-06 1.1629591e-05)
(-2.7076942e-05 -2.4827841e-06 1.3018651e-05)
(-2.2938762e-05 -9.4088451e-07 1.2604892e-05)
(-3.991324e-05 2.169608e-06 1.7645821e-05)
(-3.2219727e-05 1.2744216e-06 1.6656066e-05)
(-2.0682301e-05 -4.062455e-06 1.1698153e-05)
(-3.4126137e-05 2.2434766e-06 2.0680716e-05)
(-3.6546242e-05 1.0636243e-08 2.1243231e-05)
(-1.2763154e-05 1.4119096e-05 -2.0070394e-06)
(-2.315623e-05 2.7683925e-07 1.0877876e-05)
(-3.2345529e-05 -2.7343729e-06 1.6474684e-05)
(-2.5395486e-05 -6.7110394e-07 1.2537569e-05)
(-2.4096548e-05 1.4820762e-06 1.1400209e-05)
(-2.575065e-05 -2.2905372e-06 1.4156108e-05)
(-2.8400088e-05 -2.6907001e-08 1.3274543e-05)
(-3.55838e-05 9.9570055e-07 1.6152629e-05)
(-3.0400405e-05 1.8268776e-06 1.1882121e-05)
(-2.6205343e-05 -1.0442512e-06 1.1585926e-05)
(-2.4064283e-05 -1.8139791e-06 1.1724341e-05)
(-2.2061781e-05 -4.5337953e-06 1.1201979e-05)
(-2.4364334e-05 7.365321e-08 1.2696702e-05)
(-2.3242517e-05 -2.9009015e-06 1.3003963e-05)
(-2.5047743e-05 -7.9774322e-08 1.1745299e-05)
(-2.6920154e-05 -1.7822694e-06 1.3178804e-05)
(-2.5298014e-05 -8.3247883e-07 1.1336531e-05)
(-2.5005756e-05 -3.7985178e-06 1.4011135e-05)
(-2.7985384e-05 3.9730013e-06 1.3561576e-05)
(-2.6226156e-05 7.8105941e-07 1.2884113e-05)
(-2.5589676e-05 -1.048724e-06 1.3508299e-05)
(-6.0000097e-06 1.2289965e-05 -5.3222781e-07)
(-2.6701288e-05 -6.3177051e-07 1.2821079e-05)
(-2.5001835e-05 4.890865e-07 1.1519271e-05)
(-2.1489784e-05 3.2705976e-07 1.4861899e-05)
(-2.4627062e-05 5.8664016e-07 1.1390796e-05)
(-3.0240912e-05 6.3899952e-06 1.4535995e-05)
(-2.5224961e-05 7.1176038e-08 1.1676843e-05)
(-2.3631535e-05 5.1852049e-07 1.1651011e-05)
(-2.5212773e-05 -2.4962048e-07 1.1360166e-05)
(-2.0537381e-05 1.1451039e-06 9.8178333e-06)
(-2.4370793e-05 -2.0769421e-06 1.1936535e-05)
(-1.754243e-05 6.3816855e-06 3.358887e-06)
(-1.9450543e-05 4.9269499e-07 9.8270377e-06)
(-2.7234384e-05 2.4722371e-06 1.2712251e-05)
(-2.5895314e-05 -1.9950982e-06 1.2347079e-05)
(-2.225756e-05 -1.9885298e-06 1.0739457e-05)
(-2.9640579e-05 -6.9457494e-07 1.802856e-05)
(-2.4892103e-05 7.5569006e-09 1.1053994e-05)
(-2.2421781e-05 -2.7869738e-06 9.7748632e-06)
(-2.3977031e-05 -4.0071803e-07 1.2953446e-05)
(-5.8996678e-06 1.0544743e-05 -1.8247056e-06)
(-2.327475e-05 -7.6491179e-07 1.1038459e-05)
(-2.6722494e-05 2.1870887e-07 1.5896753e-05)
(-2.4363706e-05 -3.6209851e-06 1.0167444e-05)
(-1.9200928e-05 1.6337455e-06 1.1013365e-05)
(-2.7469728e-05 2.0480579e-06 1.2130126e-05)
(-2.6973342e-05 3.3386072e-06 1.1927627e-05)
(-2.4312173e-05 1.1900152e-06 1.1083719e-05)
(-3.4436393e-05 -5.3402839e-07 1.8256285e-05)
(-2.279067e-05 -9.5923028e-07 1.0430328e-05)
(-3.3533561e-05 -8.4018768e-07 1.5765999e-05)
(-2.7165651e-05 3.0403161e-07 1.2230013e-05)
(-1.9784256e-05 -6.8539653e-07 1.0431447e-05)
(-2.106153e-05 -2.892488e-06 9.4868888e-06)
(-2.2588078e-05 3.2187362e-07 1.0697026e-05)
(-2.6176995e-05 3.2119516e-06 1.1327533e-05)
(-2.9575748e-05 -1.2074715e-06 1.2796213e-05)
(-2.2005047e-05 3.6910165e-06 1.3242173e-05)
(-2.9688871e-05 -1.1820299e-06 1.8466694e-05)
(-2.8840996e-05 3.0582026e-06 1.35289e-05)
(-2.4236057e-05 1.8648679e-06 1.1798502e-05)
(-3.4615071e-05 -3.5346497e-06 2.0255451e-05)
(-2.6870869e-05 1.4040365e-06 1.1953361e-05)
(-2.2180708e-05 9.37854e-07 1.1215645e-05)
(-2.7064324e-05 2.5713796e-07 1.6038041e-05)
(-2.5972838e-05 -2.0499064e-06 1.3635704e-05)
(-2.7485713e-05 2.9636156e-07 1.2561592e-05)
(-3.0515735e-05 1.6895522e-06 1.4713628e-05)
(-2.8982066e-05 2.3649366e-07 1.6799542e-05)
(-2.5455595e-05 4.6166503e-06 1.2726352e-05)
(-2.4469266e-05 -1.2972495e-06 1.1126421e-05)
(-2.548573e-05 -1.9859268e-06 1.1844847e-05)
(-2.5696419e-05 -1.3019409e-06 1.4361709e-05)
(-2.3691967e-05 -2.6271028e-06 1.3068852e-05)
(-2.3324485e-05 1.5137147e-06 1.0681976e-05)
(-1.7919617e-05 1.0376394e-06 1.0112381e-05)
(-2.5485828e-05 3.88945e-07 1.1179392e-05)
(-2.6693011e-05 -1.3695199e-06 1.5009309e-05)
(-2.8764499e-05 -2.3375403e-06 1.4940813e-05)
(-2.4535041e-05 -1.1212564e-06 1.2041568e-05)
(-2.5860307e-05 1.3115376e-06 1.1940996e-05)
(-2.4216244e-05 -3.5825639e-07 1.2489594e-05)
(-2.3927994e-05 -1.8250907e-07 1.0864936e-05)
(-2.670479e-05 1.9512133e-06 1.2172085e-05)
(-2.1188476e-05 1.7382887e-07 1.0255988e-05)
(-2.4102811e-05 -2.0032446e-07 1.1239945e-05)
(-2.574574e-05 -1.0397304e-06 1.3813257e-05)
(-2.7984832e-05 1.3586386e-07 1.802705e-05)
(-2.8290511e-05 6.7241941e-07 1.3688449e-05)
(-2.3256323e-05 -1.7234708e-06 1.0338934e-05)
(-2.7405875e-05 -1.7450168e-06 1.327716e-05)
(-2.3286316e-05 1.9218153e-06 1.1215153e-05)
(-2.8612307e-05 -3.6149065e-06 1.4868642e-05)
(-2.1976411e-05 -1.2477235e-06 1.0609816e-05)
(-2.7538291e-05 5.1385635e-06 1.3272278e-05)
(-3.1405741e-05 3.1226158e-06 1.4539834e-05)
(-2.8362326e-05 7.7526606e-07 1.3952967e-05)
(-4.5848368e-05 9.8755551e-06 5.2238397e-06)
(-1.2955207e-05 5.1789266e-09 7.7418014e-06)
(-2.4897852e-05 -6.5117069e-07 1.5663486e-05)
(-1.3676251e-05 -7.1669408e-06 4.0284717e-06)
(-3.2823931e-05 6.0547488e-08 1.5148603e-05)
(-2.9506849e-05 -2.405305e-06 1.3853528e-05)
(-2.6221589e-05 2.7787492e-06 1.1615265e-05)
(-2.3047097e-05 -3.2188861e-08 1.1524781e-05)
(-3.3054741e-05 8.8981821e-06 3.605634e-06)
(-4.7163406e-05 1.2739714e-05 4.2802e-06)
(-2.5619916e-05 2.5580214e-06 1.355934e-05)
(-2.9606433e-05 8.8235863e-06 2.8131124e-06)
(-1.2299814e-05 6.677143e-06 5.417662e-06)
(-2.58744e-05 1.0747332e-05 9.0898653e-06)
(-2.6174984e-05 3.9514141e-08 1.2387642e-05)
(-2.6061522e-05 5.7368282e-07 1.3016966e-05)
(-2.1856599e-05 -2.5443834e-06 1.0930536e-05)
(-2.468146e-05 -1.4618963e-07 1.3062235e-05)
(-2.7045745e-05 -3.2605185e-07 1.3765162e-05)
(-3.1148861e-05 2.4134972e-06 1.3164744e-05)
(-3.1650477e-05 1.663744e-06 1.468578e-05)
(-2.6039057e-05 9.1482389e-07 1.29714e-05)
(-3.1531221e-05 6.4333342e-07 1.5572355e-05)
(-3.0786736e-05 7.2928765e-07 1.4187467e-05)
(-2.8625393e-05 3.7082752e-06 1.4123331e-05)
(-2.411696e-05 7.5109538e-07 1.1569216e-05)
(-9.8812783e-06 5.1915616e-06 4.0887376e-06)
(-3.4292204e-05 -1.404543e-07 1.5712051e-05)
(-3.0228873e-05 -7.5855406e-07 1.56844e-05)
(-2.6947315e-05 2.2415434e-07 1.5711768e-05)
(-2.8824571e-05 -2.4031341e-06 1.5407495e-05)
(-2.3629129e-05 -2.699462e-07 1.1687901e-05)
(-2.4048963e-05 -2.2582124e-06 1.4537611e-05)
(-2.7440528e-05 -2.8224729e-06 1.4225926e-05)
(-7.0447118e-06 4.564117e-06 2.9082913e-06)
(-2.6522432e-05 6.9687573e-07 1.2135944e-05)
(-2.5528493e-05 -2.9940385e-07 1.1854605e-05)
(-2.5369754e-05 -1.168863e-06 1.3736996e-05)
(-2.2814178e-05 -2.5071815e-06 1.1507544e-05)
(-2.3773057e-05 -1.631652e-06 1.0623215e-05)
(-2.301812e-05 -7.0247638e-07 1.1176282e-05)
(-2.6224353e-05 3.297164e-06 1.2359454e-05)
(-2.4521422e-05 -2.546429e-06 1.0240285e-05)
(-2.6170969e-05 2.3396409e-06 1.1726021e-05)
(-2.0309289e-05 2.5756369e-06 1.1849782e-05)
(-2.5419452e-05 7.4656209e-07 1.1292376e-05)
(-2.0403453e-05 3.5399446e-07 1.076308e-05)
(-2.776931e-05 1.5611971e-06 1.2346476e-05)
(-2.014872e-05 2.1364436e-06 1.1050922e-05)
(-2.5895716e-05 -1.8482206e-06 1.0751792e-05)
(-2.5019145e-05 1.3754884e-07 1.0465908e-05)
(-2.3873132e-05 -1.7595398e-06 1.1099296e-05)
(-2.2429679e-05 -1.7362617e-06 1.0358323e-05)
(-2.8240189e-05 9.3257191e-07 1.1493685e-05)
(-2.7712387e-05 3.2129955e-06 1.176543e-05)
(-7.6091278e-06 -3.1531864e-06 1.6183723e-06)
(-1.7485136e-05 1.4333588e-06 9.2659858e-06)
(-2.4839473e-05 -2.1461524e-07 1.1361328e-05)
(-2.6851254e-05 9.8886145e-07 1.2313056e-05)
(-2.5982313e-05 1.1280371e-06 1.1872028e-05)
(-2.8626394e-05 -4.8608278e-07 1.2554615e-05)
(-2.8336572e-05 2.4102678e-06 1.2803501e-05)
(-2.7003152e-05 2.606001e-06 1.2229091e-05)
(-1.7911528e-05 -9.9399501e-07 1.0499229e-05)
(-2.2756548e-05 1.0669484e-06 1.1196888e-05)
(-3.1986807e-05 1.2911608e-06 1.4702378e-05)
(-3.5487793e-05 2.3836425e-06 1.4556554e-05)
(-2.6015244e-05 4.0146972e-06 1.3037127e-05)
(-2.5266561e-05 -1.1591512e-06 1.360965e-05)
(-2.1766685e-05 3.3268552e-06 1.1052456e-05)
(-2.7925332e-05 2.7483249e-07 1.2248757e-05)
(-3.3012069e-05 -1.0706923e-06 1.3527944e-05)
(-2.5797726e-05 -1.5249781e-07 1.1699285e-05)
(-2.8039476e-05 -1.7388037e-06 1.1389992e-05)
(-3.0517212e-05 -6.0610416e-07 1.2194303e-05)
(-2.9211159e-05 3.4172643e-06 1.2743262e-05)
(-3.3291053e-05 1.7876975e-06 1.8391002e-05)
(-2.9586237e-05 4.2609416e-07 1.0903819e-05)
(-2.5705109e-05 1.9313442e-06 1.2276294e-05)
(-3.0368193e-05 7.1457511e-07 1.205252e-05)
(-3.1004509e-05 7.8916487e-07 1.228173e-05)
(-2.8488582e-05 -9.2259531e-07 1.1231569e-05)
(-3.0971416e-05 -2.310521e-07 1.2784174e-05)
(-2.5385988e-05 -1.1460601e-06 1.0971454e-05)
(-3.2738797e-05 3.43207e-06 1.3711739e-05)
(-2.9985593e-05 5.0379581e-07 1.2448266e-05)
(-9.2648836e-06 -3.0740445e-06 2.6802695e-06)
(-2.921736e-05 1.3337636e-06 1.228071e-05)
(-2.8567885e-05 -1.9896395e-06 1.1578324e-05)
(-3.4668064e-05 2.9005377e-06 1.3956491e-05)
(-3.5985144e-05 2.0954596e-06 1.6696312e-05)
(-3.1948389e-05 -1.5921621e-06 1.3105797e-05)
(-2.9238124e-05 -1.9233016e-06 1.4002087e-05)
(-1.151041e-05 4.8396403e-06 4.8275134e-06)
(-2.5141597e-05 -1.6860527e-06 1.4780645e-05)
(-3.1527233e-05 5.0253358e-06 1.3729224e-05)
(-3.4500617e-05 -1.3502322e-08 1.4554437e-05)
(-2.0911404e-05 6.2882865e-06 5.123639e-06)
(-2.5313386e-05 1.6280624e-08 1.0082706e-05)
(-3.1772174e-05 5.0834716e-07 1.7914054e-05)
(-4.2257711e-05 -6.6661173e-07 2.0303855e-05)
(-3.6868995e-05 3.1939905e-06 1.4675354e-05)
(-1.5742457e-05 4.5187397e-06 4.5474199e-06)
(-2.4885185e-05 -1.551094e-06 1.1521623e-05)
(-2.2679938e-05 -3.0888793e-06 8.9241446e-06)
(-2.810499e-05 3.5613741e-07 1.0972348e-05)
(-3.2120697e-05 6.1391347e-07 1.3444786e-05)
(-2.9454957e-05 8.8074047e-07 1.1155971e-05)
(-2.4677366e-05 -4.2887831e-06 1.0012776e-05)
(-2.788666e-05 -6.0963305e-08 1.1403261e-05)
(-3.0148247e-05 1.5651555e-06 1.5283011e-05)
(-2.7425556e-05 1.5598627e-06 1.2292752e-05)
(-2.3320418e-05 -1.9761212e-06 1.0928719e-05)
(-2.7248079e-05 8.0773691e-07 1.037532e-05)
(-1.7909658e-05 2.0321208e-06 9.5700143e-06)
(-3.478965e-05 2.224082e-06 1.363727e-05)
(-3.5205415e-05 4.3042463e-07 1.3262026e-05)
(-2.5896332e-05 -8.254992e-07 1.7605532e-05)
(-2.3392608e-05 -1.6294222e-06 1.0931086e-05)
(-3.1314821e-05 2.6823922e-06 1.2085014e-05)
(-3.0924536e-05 1.0329875e-06 1.1353354e-05)
(-2.9201611e-05 -4.5757907e-07 1.281543e-05)
(-2.4084789e-05 -2.6737781e-06 1.6072755e-05)
(-2.6213188e-05 1.9229318e-06 1.1286185e-05)
(-3.0856303e-05 3.4156712e-07 1.9484685e-05)
(-1.4701012e-05 7.7658648e-07 7.4650682e-06)
(-2.6037812e-05 -9.3990297e-07 1.128e-05)
(-2.3699146e-05 -2.8989535e-06 1.4646082e-05)
(-3.2379972e-05 4.3469978e-06 1.3765963e-05)
(-3.3728528e-05 -6.3862063e-07 1.2876503e-05)
(-1.6155651e-05 1.7617098e-06 1.1672458e-05)
(-2.8348929e-05 -1.423725e-06 1.1618514e-05)
(-3.1582931e-05 4.1830367e-07 1.783977e-05)
(-3.0646031e-05 -1.4087611e-06 1.3020189e-05)
(-2.4211055e-05 -3.6050217e-07 1.306844e-05)
(-3.1470773e-05 -3.7596372e-07 1.302364e-05)
(-2.5732146e-05 -1.5236309e-06 9.7067635e-06)
(-4.0434065e-05 1.5066758e-05 -1.0408698e-05)
(-2.9294869e-05 -2.8697582e-06 1.1718766e-05)
(-2.3596151e-05 1.0374243e-07 1.0486132e-05)
(-2.3016555e-05 -2.6667185e-06 1.4220424e-05)
(-2.6812614e-05 -1.0544924e-06 1.0978323e-05)
(-3.3683853e-05 3.1979641e-06 1.4880807e-05)
(-2.7058601e-05 5.3384548e-07 1.0406948e-05)
(-3.2087216e-05 -1.5652503e-06 1.3645497e-05)
(-1.483498e-05 -9.7123492e-07 9.0163256e-06)
(-3.8891961e-05 3.9690768e-07 1.5824238e-05)
(-2.8552131e-05 -3.4960456e-07 1.3436987e-05)
(-2.0469016e-05 4.6766401e-07 1.134078e-05)
(-2.6897529e-05 -1.6052562e-06 1.0347258e-05)
(-3.247463e-05 -1.7427798e-06 1.4210619e-05)
(-2.4626939e-05 -2.3213546e-06 1.2214332e-05)
(-2.5820988e-05 -1.161808e-06 1.1768676e-05)
(-3.1193111e-05 3.7474556e-06 1.4082764e-05)
(-3.003114e-05 6.1551072e-07 1.2924872e-05)
(-2.7595082e-05 -2.2651715e-07 1.6114635e-05)
(-3.5053042e-05 -2.9014772e-06 1.4375669e-05)
(-2.8993537e-05 -4.1950058e-07 1.3039848e-05)
(-2.5637268e-05 -1.2518515e-06 1.0232768e-05)
(-3.2580599e-05 4.702938e-06 1.4058662e-05)
(-3.7907916e-05 2.9289877e-06 1.423362e-05)
(-4.081733e-05 -3.5747822e-07 1.6524309e-05)
(-2.8785005e-05 1.7170723e-06 1.3940001e-05)
(-2.6763545e-05 1.2242164e-06 1.1985713e-05)
(-3.8945244e-05 -1.0900539e-07 1.8641466e-05)
(-2.1877308e-05 2.2620444e-06 1.0264572e-05)
(-3.3896914e-05 -9.100669e-07 1.4180651e-05)
(-2.8079304e-05 1.0449797e-06 1.3043576e-05)
(-2.706417e-05 2.2437222e-06 1.1472164e-05)
(-3.479313e-05 -3.8134499e-07 1.9785643e-05)
(-3.0238772e-05 1.1182204e-06 1.132931e-05)
(-2.4004282e-05 1.9096865e-06 1.1078448e-05)
(-2.9304969e-05 4.9138961e-06 1.3126412e-05)
(-3.1118953e-05 3.902985e-08 1.2876567e-05)
(-3.1779241e-05 3.0587368e-06 1.2876634e-05)
(-3.2064253e-05 -2.9111874e-06 1.2124622e-05)
(-3.3802004e-05 -2.0335649e-06 1.4016144e-05)
(-3.4700979e-05 -1.2592711e-06 1.329744e-05)
(-3.5946166e-05 -3.0318737e-06 1.9546518e-05)
(-2.6241317e-05 1.4293966e-07 1.0527262e-05)
(-2.5624809e-05 1.772562e-06 1.0933076e-05)
(-2.8004694e-05 -6.1545428e-07 1.8599542e-05)
(-2.9807318e-05 2.6939986e-06 1.2118749e-05)
(-2.8450819e-05 8.5060986e-07 1.0240223e-05)
(-3.1182398e-05 -1.4988417e-06 1.9021681e-05)
(-2.5592721e-05 -1.2092294e-06 8.5925696e-06)
(-2.684713e-05 -1.325232e-06 1.5693056e-05)
(-1.1971201e-05 2.6685618e-07 6.8652891e-06)
(-3.1662689e-05 2.9217295e-06 1.3942249e-05)
(-2.7201999e-05 -1.3060186e-06 1.4581717e-05)
(-2.7697223e-05 -1.0781034e-06 1.3441572e-05)
(-1.3664032e-05 -1.4653573e-06 9.2921488e-06)
(-3.0586674e-05 -1.8107415e-06 1.2988341e-05)
(-2.9304312e-05 1.9013052e-06 1.2098884e-05)
(-1.4906802e-05 4.965395e-07 8.2528497e-06)
(-2.9289994e-05 8.3539499e-07 1.0356642e-05)
(-2.2802899e-05 8.5534788e-07 1.1169206e-05)
(-2.4898577e-05 -1.800873e-07 9.0804174e-06)
(-2.8273386e-05 4.5886487e-07 1.103926e-05)
(-1.404872e-05 -9.3672795e-07 8.3950474e-06)
(-2.911516e-05 5.752434e-06 1.255374e-05)
(-3.6373256e-05 -7.6730594e-06 6.4608768e-06)
(-3.8629852e-05 -6.5046236e-06 9.9523851e-06)
(-2.7467145e-05 8.1145717e-07 1.022613e-05)
(-2.4925925e-05 -1.2623324e-06 9.9447303e-06)
(-4.2600519e-05 4.1732667e-06 1.8236473e-05)
(-3.7201987e-05 1.0639302e-07 1.6135181e-05)
(-2.6032427e-05 2.3451844e-06 1.0418462e-05)
(-3.3056782e-05 4.2622832e-06 1.1752582e-05)
(-2.2318077e-05 -1.3432674e-06 9.1768738e-06)
(-2.8612326e-05 1.4599683e-06 9.5997683e-06)
(-2.962815e-05 2.3839547e-07 9.5380851e-06)
(-2.9862115e-05 -1.9736491e-06 1.0531084e-05)
(-2.599471e-05 -1.6317603e-06 1.317154e-05)
(-2.8308321e-05 -2.1613486e-06 1.0600526e-05)
(-2.8950351e-05 7.4772027e-07 1.1803796e-05)
(-2.8378053e-05 1.2273939e-06 1.0425223e-05)
(-3.2145453e-05 3.8212206e-06 1.3821262e-05)
(-2.934641e-05 3.6153145e-06 1.2713242e-05)
(-3.2287121e-05 1.3522509e-06 1.3286445e-05)
(-1.1914316e-05 3.1080427e-07 6.8696654e-06)
(-3.0559802e-05 -2.728837e-07 1.3806628e-05)
(-2.9414516e-05 3.7666632e-06 1.1974602e-05)
(-3.1890028e-05 -1.8185297e-06 1.2837633e-05)
(-2.3882512e-05 1.1498983e-06 1.0674567e-05)
(-3.3305875e-05 -2.9951644e-06 1.4196769e-05)
(-2.8152325e-05 3.1095892e-06 1.1976581e-05)
(-2.7302885e-05 2.6748446e-06 1.3500008e-05)
(-2.5382719e-05 -3.9314955e-06 1.3183556e-05)
(-3.4453481e-05 2.6507975e-06 1.2733894e-05)
(-2.6047573e-05 1.6049466e-05 -7.1181987e-06)
(-1.9146089e-05 9.6609686e-06 3.4951171e-06)
(-2.397366e-05 -2.4512419e-06 1.4683413e-05)
(-2.3133617e-05 -9.461884e-07 1.4228494e-05)
(-2.5836905e-05 -1.0112262e-06 1.5491433e-05)
(-2.7911583e-05 -6.7064169e-07 1.5115836e-05)
(-3.1442297e-05 -2.4824174e-06 1.9750709e-05)
(-1.4808913e-05 -2.5013526e-06 1.0818099e-05)
(-8.4957881e-05 -1.8332599e-07 -1.4355645e-05)
(-3.0761979e-05 -2.221362e-06 1.8500608e-05)
(-2.4739219e-05 -2.1776346e-06 1.4022916e-05)
(-2.4677178e-05 -3.2355858e-06 1.7465589e-05)
(-2.8732346e-05 -1.2124593e-06 1.2979862e-05)
(-2.8953551e-05 -1.612963e-06 1.5307636e-05)
(-2.3548976e-05 -3.814835e-06 1.3072476e-05)
(-2.7120445e-05 5.7902849e-07 1.917549e-05)
(-3.3683084e-05 -7.4419132e-07 1.4095936e-05)
(-3.1419213e-05 -6.5454197e-07 1.8140682e-05)
(-3.5201395e-05 -1.0153023e-06 1.7454377e-05)
(-2.7910695e-05 -1.6862272e-06 1.6091885e-05)
(-2.6988454e-05 -8.8206776e-07 1.385355e-05)
(-3.0350733e-05 7.473118e-07 1.653577e-05)
(-3.9539772e-05 6.0933113e-07 1.8098832e-05)
(-2.4766746e-05 -2.2396144e-06 1.4213098e-05)
(-9.4367292e-06 1.2271734e-05 -2.3987873e-06)
(-2.975143e-05 -8.6653086e-07 1.4792904e-05)
(-2.9510456e-05 -4.5008795e-07 1.3154854e-05)
(-2.4923811e-05 -1.8635477e-06 1.3132694e-05)
(-2.878132e-05 -1.0066218e-06 1.5331569e-05)
(-2.7060539e-05 -1.1977261e-06 1.580487e-05)
(-2.533002e-05 -1.6004038e-06 1.4255587e-05)
(-2.9432704e-05 -1.6745704e-07 1.6923378e-05)
(-2.705496e-05 -7.5389877e-07 1.3859346e-05)
(-2.7250794e-05 -5.811336e-07 1.3329611e-05)
(-2.7245683e-05 -7.3920859e-07 1.6692715e-05)
(-3.121795e-05 1.6879558e-07 1.3944784e-05)
(-2.693133e-05 8.3571549e-07 1.7717024e-05)
(8.8595818e-06 -1.0014184e-07 -5.1731937e-06)
(-2.9167992e-05 -1.3317514e-07 1.4796973e-05)
(-4.0953494e-05 7.5306273e-07 2.2666779e-05)
(-3.0412195e-05 4.4922033e-07 1.7405294e-05)
(-2.8003984e-05 -9.3369784e-07 1.5696096e-05)
(-2.7605726e-05 -9.4447861e-07 1.5110937e-05)
(-2.7308931e-05 -2.6203375e-07 1.4723739e-05)
(-2.8112913e-05 -1.221777e-06 1.5359467e-05)
(-3.086192e-05 2.5720418e-08 1.3486365e-05)
(-2.6190774e-05 8.0901012e-07 1.670202e-05)
(-2.9986677e-05 -4.469621e-07 1.4167332e-05)
(-3.2862703e-05 3.6408354e-06 1.2979777e-05)
(-2.7910677e-05 -6.1629326e-07 1.701627e-05)
(-3.0214248e-05 -3.3546866e-07 1.7363537e-05)
(-3.4398632e-05 -4.4028223e-07 1.5107643e-05)
(-2.8954135e-05 -1.8696073e-06 1.6345269e-05)
(-2.7037162e-05 -7.8049624e-07 1.2394298e-05)
(-2.8939131e-05 -8.3336578e-07 1.5339486e-05)
(-3.9863574e-05 1.6827966e-06 2.5340331e-05)
(-3.2687959e-05 -9.0134215e-08 1.2853337e-05)
(-3.7101383e-05 1.1484238e-06 2.0471422e-05)
(-2.9460615e-05 2.9548488e-09 1.7337085e-05)
(-2.9103732e-05 2.352004e-07 1.9146678e-05)
(-3.0345302e-05 3.8741293e-07 2.0302769e-05)
(-3.1181534e-05 5.7645536e-07 1.3446307e-05)
(-3.0391992e-05 -7.4372536e-07 1.8905958e-05)
(-3.0772936e-05 -1.2746905e-06 1.7189762e-05)
(-3.6019553e-05 -7.0763173e-07 1.77307e-05)
(-2.8821465e-05 -5.4352815e-08 1.7845712e-05)
(4.7799736e-06 -2.5064794e-07 -3.1713184e-06)
(-3.0926202e-05 3.9486057e-07 1.5671244e-05)
(-2.9953905e-05 -2.4145268e-07 1.7461648e-05)
(-2.8846932e-05 9.8507538e-08 1.2250828e-05)
(-2.5873008e-05 3.5587776e-07 1.1531115e-05)
(-3.6643086e-05 -4.3682578e-07 2.048471e-05)
(-2.522413e-05 -3.3666286e-06 1.1193635e-05)
(-3.9383003e-05 -1.6070137e-07 1.8035661e-05)
(-2.9044174e-05 -1.0080949e-06 1.6065516e-05)
(-3.6027667e-05 5.1934467e-07 1.5870278e-05)
(-2.6617688e-05 2.7020719e-07 1.7574365e-05)
(-2.8922726e-05 -1.2834916e-06 1.4162049e-05)
(-2.6514124e-05 -1.8710976e-06 1.2183152e-05)
(-3.3340697e-05 1.5912547e-07 1.779111e-05)
(-2.6547002e-05 -1.9997502e-06 1.5639969e-05)
(-4.0633064e-05 7.8934598e-07 1.9136138e-05)
(-2.9146635e-05 -1.1326242e-06 1.4643143e-05)
(-5.2155637e-05 1.288186e-05 -1.5433407e-05)
(-2.7838099e-05 -2.3457066e-06 1.5590319e-05)
(-2.9081591e-05 -1.2754976e-06 1.7672716e-05)
(-2.6560419e-05 -2.473613e-06 1.3766036e-05)
(-2.7308046e-05 -1.8905478e-06 1.5598887e-05)
(-3.394354e-05 2.5037701e-07 1.4045704e-05)
(-3.320097e-05 -5.9570413e-07 1.8215975e-05)
(-3.0550276e-05 -4.7995132e-07 1.6733424e-05)
(-0.00010559025 1.6240862e-05 5.3625871e-05)
(-2.9297009e-05 -2.0748795e-06 1.5979291e-05)
(-2.7796517e-05 -1.540279e-06 1.694798e-05)
(-1.2072495e-05 -1.5311442e-07 6.9245583e-06)
(-2.3208105e-06 6.5883207e-06 -7.4722883e-07)
(-6.1339833e-05 -1.7009261e-05 -1.2927284e-05)
(-2.9126264e-05 -1.2828205e-06 1.6836108e-05)
(-3.6779045e-05 1.1702355e-06 1.6673147e-05)
(-3.4450911e-05 -1.3473809e-06 2.014113e-05)
(-2.302291e-05 1.0929111e-06 1.4965813e-05)
(-2.7661437e-05 -9.5966135e-07 1.6998463e-05)
(-2.6833882e-05 -2.130785e-06 1.7300449e-05)
(-1.2422492e-05 2.8215834e-07 5.6736111e-06)
(-2.5734958e-05 -1.6718162e-07 1.1864429e-05)
(-2.7982479e-05 -1.0709765e-06 1.8120205e-05)
(-2.7382725e-05 -1.3220693e-06 1.3140605e-05)
(-2.8427224e-05 -1.9471652e-06 1.6283236e-05)
(-2.3760244e-05 4.1284736e-08 1.478753e-05)
(-3.2031263e-05 -3.4852853e-07 1.6447417e-05)
(-3.0109016e-05 1.2267358e-07 1.7842947e-05)
(-3.5392293e-05 -3.2703824e-07 1.5635816e-05)
(-3.2384402e-05 5.3952014e-07 1.4921398e-05)
(-2.6287283e-05 -1.0308948e-06 1.2827159e-05)
(-3.0013817e-05 -1.349894e-06 1.6206454e-05)
(-3.1819051e-05 -3.6948887e-07 1.7670387e-05)
(-2.7331497e-05 -6.3278562e-07 1.5559932e-05)
(-3.7362428e-05 8.780831e-07 1.6756298e-05)
(-3.2611952e-05 -1.1074936e-06 1.9968296e-05)
(-3.591394e-05 4.9923314e-06 1.4405376e-05)
(-5.44948e-05 -2.1715652e-06 -2.0730855e-05)
(-2.9512353e-05 1.733387e-07 1.2713249e-05)
(-3.0993178e-05 1.269157e-06 1.5170944e-05)
(-2.9458126e-05 -1.6509095e-06 1.5946831e-05)
(-3.094164e-05 -2.9550439e-08 1.4679092e-05)
(-3.066042e-05 -2.2543014e-06 1.4354572e-05)
(-1.7862199e-05 6.4502651e-07 9.9089738e-06)
(-2.6957462e-05 -2.2495675e-06 1.4698013e-05)
(-3.6035402e-05 -5.1230776e-07 1.7744379e-05)
(-3.3595228e-05 1.7282437e-06 1.4254216e-05)
(-2.8834296e-05 -1.8644676e-07 1.4151197e-05)
(-7.7500225e-05 -2.6845119e-05 -1.2919836e-05)
(-3.5358049e-05 -1.6502733e-06 2.1162766e-05)
(-3.0369113e-05 -1.2857358e-06 1.7151099e-05)
(-3.504139e-05 -3.1198708e-07 1.9849493e-05)
(-3.0584014e-05 -8.6000353e-07 1.6089355e-05)
(-3.2657838e-05 -7.4066708e-07 1.8050232e-05)
(-3.211047e-05 -1.9954456e-06 1.6803986e-05)
(-7.5155832e-05 -1.9594968e-05 -1.6471865e-05)
(-2.6378229e-05 -2.3895094e-06 1.5270974e-05)
(-2.4580502e-05 -3.8670065e-06 1.5032423e-05)
(-3.608345e-05 -8.6146302e-07 1.9067906e-05)
(-3.0744434e-05 -1.6053063e-06 1.6854186e-05)
(-2.7129252e-05 -2.5768698e-06 1.5964717e-05)
(-3.9666788e-05 1.1583313e-06 1.7941108e-05)
(-2.795557e-05 8.4907114e-07 1.3856219e-05)
(-3.2598731e-05 -1.8423011e-06 1.6843072e-05)
(-4.1712325e-05 -4.239901e-06 1.7037093e-05)
(-2.1101651e-05 6.9378628e-07 9.436897e-06)
(-3.1003209e-05 9.1531319e-07 1.4322157e-05)
(-3.692083e-05 9.3336189e-07 1.5391781e-05)
(-4.8390333e-05 1.2433365e-06 1.7559312e-05)
(-4.8645933e-05 -2.1944495e-06 1.8502265e-05)
(-2.7606464e-05 -2.9529077e-07 1.3578116e-05)
(-2.5091221e-05 -1.9296846e-06 1.5632597e-05)
(-2.9484437e-05 1.2150729e-06 1.2382325e-05)
(-2.9104597e-05 -1.6441081e-06 1.6660691e-05)
(-2.9637894e-05 5.4966332e-07 1.3761492e-05)
(-2.6473169e-05 -1.2139475e-06 1.4412517e-05)
(-2.8353012e-05 5.6578894e-07 1.3256967e-05)
(-2.7249054e-05 -9.4109011e-07 1.3336633e-05)
(-2.9523242e-05 1.4440112e-07 1.4014025e-05)
(-3.1242213e-05 -1.676065e-06 1.3957588e-05)
(-2.5589018e-05 -2.1999462e-06 1.4157573e-05)
(-2.9930676e-05 6.3877641e-07 1.5116053e-05)
(-2.7737991e-05 -1.2784584e-06 1.4400902e-05)
(-3.0907475e-05 -5.0715599e-07 1.6686661e-05)
(-1.9400755e-05 1.2362212e-07 9.4156152e-06)
(-3.27389e-05 -2.0283832e-07 1.6166913e-05)
(-2.7394155e-05 -2.0059603e-06 1.429302e-05)
(-3.0850269e-05 -1.5724108e-06 1.5170379e-05)
(-3.1369172e-05 -2.2546562e-06 1.8055396e-05)
(-3.1479328e-05 -1.2009908e-07 1.5151677e-05)
(-2.8570115e-05 4.1703335e-07 1.3684659e-05)
(-3.1632365e-05 -4.0130441e-07 1.5225771e-05)
(-2.8849394e-05 -1.9619537e-06 1.4961802e-05)
(-2.7077058e-05 -1.3817383e-06 1.374283e-05)
(-3.1467323e-05 -2.0503588e-06 1.6163672e-05)
(-0.00012046529 2.0791805e-05 5.9646477e-05)
(-2.7975323e-05 -1.8648008e-06 1.4762226e-05)
(-2.7745687e-05 -5.715819e-07 1.6036852e-05)
(-2.8572141e-05 6.7895825e-07 1.4087446e-05)
(-2.6718532e-05 -1.8622131e-06 1.5044426e-05)
(-3.1396306e-05 -4.299133e-07 1.6207207e-05)
(-3.5859256e-05 8.6348059e-07 1.5940213e-05)
(-2.6890949e-05 -2.6694661e-06 1.4542323e-05)
(-2.9390895e-05 7.5300547e-07 1.4292722e-05)
(-2.7211386e-05 4.5057965e-07 1.24386e-05)
(-2.9748169e-05 -1.7500955e-06 1.5355773e-05)
(-2.4111927e-05 -3.2205686e-06 1.4412545e-05)
(-2.9255862e-05 1.1194039e-06 1.4385203e-05)
(-3.0152582e-05 -1.240838e-06 1.5307311e-05)
(-2.763421e-05 4.905299e-07 1.3454054e-05)
(-3.5238326e-05 4.927485e-07 1.5910672e-05)
(-3.3064781e-05 9.554568e-07 2.0669893e-05)
(-3.6464451e-05 4.2201157e-07 1.885452e-05)