/*--------------------------------*- C++ -*----------------------------------*\
  =========                 |
  \\      /  F ield         | OpenFOAM: The Open Source CFD Toolbox
   \\    /   O peration     | Website:  https://openfoam.org
    \\  /    A nd           | Version:  11
     \\/     M anipulation  |
\*---------------------------------------------------------------------------*/
FoamFile
{
    format      ascii;
    class       volVectorField;
    location    "10000";
    object      wallShearStress;
}
// * * * * * * * * * * * * * * * * * * * * * * * * * * * * * * * * * * * * * //

dimensions      [0 2 -2 0 0 0 0];

internalField   uniform (0 0 0);

boundaryField
{
    wall-fluid_domain
    {
        type            calculated;
        value           nonuniform List<vector> 
42723
(
(-0.00016550173 -7.4350228e-07 0.00014940638)
(-0.00013450825 -2.4776211e-06 0.00012868274)
(-9.7166545e-05 -1.1253646e-06 0.00010050219)
(-0.00014917663 3.8995631e-06 0.00014937063)
(-0.0001277663 -4.1369364e-06 0.00012164129)
(-0.00013602302 5.1037076e-06 0.00012563927)
(-0.00014125648 3.2471426e-06 0.00012668972)
(-0.00013110423 -2.2636421e-06 0.00012031164)
(-0.00012635115 -3.033389e-06 0.00011989262)
(-0.00015235884 1.0543194e-05 0.00014849089)
(1.7283953e-05 -1.7451396e-05 -2.3739205e-05)
(-0.00011431627 6.3201647e-07 0.00011629812)
(-0.00015728933 5.8815363e-06 0.0001472528)
(-0.00012453958 -4.0778231e-06 0.00012947944)
(-0.00014108556 3.5246643e-06 0.00012654925)
(-6.6045503e-05 -2.7081856e-05 2.7452061e-05)
(-0.000149839 -1.5244647e-06 0.00013985159)
(-9.946641e-05 -5.5604809e-06 9.5894609e-05)
(-0.00013533036 -4.6328488e-06 0.00012879746)
(-0.00013796698 -1.5787227e-06 0.00013915552)
(-0.00023731084 -5.0092284e-05 0.0001532254)
(-0.00012605191 4.6998468e-06 0.00012106004)
(-0.00015106524 2.2403547e-06 0.00013693889)
(-0.00011575135 -1.0983185e-06 0.00011366489)
(-9.7229104e-05 -1.6402639e-06 9.6415071e-05)
(-0.000113897 -3.9011251e-06 0.00011847358)
(-0.00018814318 -1.0950329e-05 0.00016080942)
(-0.00014598809 -1.4734518e-06 0.00014045851)
(-0.00013765446 -1.9458742e-06 0.00014050382)
(-0.00014738638 -1.0484324e-06 0.00014037647)
(-3.7858415e-05 1.0054874e-05 2.6738437e-05)
(-0.00014378769 -7.0246977e-06 0.00014780565)
(-0.00011803552 -5.639024e-06 0.00011433091)
(-3.5969782e-05 6.4113371e-06 2.3392677e-05)
(-0.00012672641 -5.2234915e-06 0.00013050714)
(-0.00015790051 5.8111602e-06 0.00014804276)
(-0.00016192421 6.3259302e-06 0.00014996772)
(-0.00014181131 -2.499245e-06 0.00013730087)
(-0.00013181824 3.8745501e-06 0.00012682285)
(-0.00016124418 -4.4218314e-06 0.00014659026)
(-0.00011598888 -4.2063718e-06 0.00011742126)
(-0.0001311888 -1.8911704e-06 0.00012771429)
(-0.00012848659 5.7622873e-07 0.00012085473)
(-0.0001321445 -3.8030914e-06 0.00012526687)
(-3.2997752e-05 6.8607933e-06 2.2978785e-05)
(-0.00010579448 -1.0431604e-06 9.3507208e-05)
(-0.00012473565 8.3879277e-07 0.00013211119)
(-0.00015135586 -2.2092288e-06 0.0001482681)
(-0.00013645258 -1.1148449e-06 0.00012383072)
(-0.00012398409 -1.8063686e-06 0.00011592562)
(-0.00016048772 -1.3926364e-06 0.00014431343)
(-0.00012801702 -1.754668e-06 0.00012363186)
(-0.00011912665 -2.8707565e-06 0.00011738774)
(-0.00015451206 4.5396157e-06 0.00015269753)
(-4.3868214e-05 1.3973287e-05 3.3450303e-05)
(-9.9093816e-05 -1.8234274e-06 9.4412664e-05)
(-0.00014350641 3.791231e-06 0.00014300777)
(-0.00017256783 1.2898534e-06 0.00015396279)
(-0.00012369179 -2.6365405e-06 0.00011881997)
(-0.00013196687 -1.8894327e-06 0.00012975025)
(-4.2641689e-05 7.5478652e-06 2.8518814e-05)
(-0.00011125791 -6.2425194e-07 0.00011144426)
(-0.00010296329 2.01527e-06 0.00010163819)
(-0.00017247227 -1.283623e-05 0.00013443798)
(-0.00017871429 -4.5631294e-06 0.00013452783)
(-0.00010926018 -3.1497008e-07 0.00011155692)
(-0.00013120128 -1.0492035e-06 0.00012137083)
(-3.2928014e-05 6.0737611e-06 2.3904596e-05)
(-0.00015967825 1.4441469e-06 0.00015108208)
(-0.000135469 6.0132585e-06 0.00013064279)
(-0.00013192109 1.2200488e-06 0.00012386026)
(-0.00010616884 -2.1049421e-06 0.00010484923)
(-0.00011362819 -3.4085168e-06 0.0001101218)
(-0.00011857476 2.9316383e-06 0.00011976074)
(-0.0001075558 -2.4619044e-06 0.00010616229)
(-0.00011460675 -3.1744502e-06 0.00011061698)
(-0.00012763429 -3.4909826e-06 0.00012712664)
(-0.00013811914 2.2671956e-06 0.00013313186)
(-0.00012653518 -4.6275098e-06 0.00012011548)
(-0.00013105336 1.3031246e-06 0.00012988513)
(-0.00012273521 -2.0218558e-06 0.00011559977)
(-0.00011450366 -2.5063742e-06 0.00011239991)
(-0.00013250834 -1.4617619e-06 0.0001254591)
(-0.0001295165 -3.4582179e-06 0.00012261501)
(-0.00011953172 -1.3692918e-06 0.00011331142)
(-2.9467829e-05 5.790586e-06 2.7715672e-05)
(-0.00015087315 3.6870515e-06 0.00014554256)
(-0.00012409961 -2.8367358e-06 0.0001151975)
(-0.00011332517 -3.504402e-06 0.00011389065)
(-0.00011689944 -2.7976116e-06 0.00011484548)
(-0.00013649822 4.4933794e-07 0.00012309441)
(-0.00013535661 -4.3874407e-06 0.00012901007)
(-9.3936831e-05 -2.2498798e-06 9.4316164e-05)
(-0.00018297147 -4.0405459e-06 0.00013806634)
(-0.00019698873 3.4791267e-06 8.8059035e-05)
(2.695415e-05 1.9209703e-05 -2.0935111e-05)
(-0.00011872512 -2.9246145e-06 0.00011278564)
(-9.6159777e-05 -4.3563848e-06 9.6974228e-05)
(-0.0001217073 -3.8823583e-06 0.00011403852)
(-0.00010585097 -2.6316173e-06 0.00010994996)
(-0.00012454266 -9.1786594e-06 0.00011969042)
(-0.00011633488 -5.0255537e-06 0.00011203182)
(-0.00016713046 -7.9072567e-06 0.00012224894)
(-3.1161613e-05 7.3036196e-07 3.2957398e-05)
(-0.00012433922 -2.9210011e-06 0.00011843212)
(-0.00011584265 -1.7859665e-06 0.00011921695)
(-2.5300093e-05 2.7854169e-06 3.0746047e-05)
(-9.0911034e-05 -6.6097992e-06 8.6543333e-05)
(-0.00015401978 -1.0357931e-06 9.8681351e-05)
(-6.0101762e-05 5.8428051e-06 4.5300962e-05)
(-0.00011776519 -7.1708417e-06 0.00011734102)
(-0.00016659818 -9.0502038e-09 9.2454317e-05)
(-0.00016632025 6.4596499e-06 0.00010953628)
(-0.00012773315 1.7712805e-06 0.0001218455)
(-0.0001184301 -3.9500213e-06 0.000118462)
(-0.00012083527 -2.4559716e-06 0.00012318174)
(-0.00022724665 7.0022991e-07 0.00010731022)
(-0.00010833536 -1.5198417e-06 0.00010100617)
(-9.4312263e-05 -2.2448179e-06 0.00010387119)
(-3.6809295e-05 6.8914561e-06 2.9088068e-05)
(-0.00013202281 2.0217115e-06 8.393278e-05)
(-0.00011334705 -2.0184883e-06 0.00010933555)
(-9.4356207e-05 -5.0372004e-06 9.864645e-05)
(-0.00020266154 -2.4400525e-05 0.00014780317)
(-0.00012495484 -4.9745714e-06 0.00012123253)
(-0.00012650819 -1.5724616e-06 0.00012059376)
(-0.00026394625 -4.0092833e-05 0.00017434414)
(-0.00012346014 -2.7247942e-06 0.00011754525)
(-0.00015223899 5.3482516e-07 9.0261493e-05)
(-9.1857515e-05 -3.6835425e-06 9.6235525e-05)
(-0.00013256409 8.1907244e-07 0.00012382474)
(-0.00011896252 -5.4862772e-06 0.00011351257)
(-0.0001479482 -2.6569111e-06 0.0001421986)
(-0.00018565093 1.9817564e-05 7.227614e-05)
(-0.0001329377 -3.7679941e-06 0.00012394868)
(-0.00010832286 -3.1203639e-06 0.00010808957)
(-0.00011600806 -5.2921311e-06 0.00011324165)
(-0.00011783945 -2.7385066e-06 0.00011182433)
(-0.00013418525 2.8831692e-06 0.00012749396)
(-0.00015577462 3.3862448e-06 0.00014576977)
(-0.0002221954 6.7458078e-06 9.9821694e-05)
(-0.00017366178 2.9511634e-05 7.2841192e-05)
(-0.00012411244 -5.0925986e-06 0.00011723136)
(-0.00019471206 2.9719905e-05 7.6799989e-05)
(-0.00014102122 1.8393889e-06 0.00012982481)
(-0.00011772387 -4.6799337e-06 0.00011354015)
(1.0373421e-05 -6.3123854e-06 -6.990694e-06)
(-0.00020980514 6.3180024e-07 9.9480431e-05)
(-0.00015843365 2.1347094e-06 0.00015125846)
(-0.00012138419 -4.0814726e-06 0.00011743411)
(-0.00011723427 -2.7089601e-06 0.00011005942)
(-0.00011211318 -2.3173844e-06 0.00010750049)
(-0.00013200192 -5.5728466e-06 0.00012311392)
(-9.6807575e-05 -4.1320793e-06 9.1672339e-05)
(-0.00012825535 -2.2452589e-06 0.00011261293)
(-0.00011984405 -2.2963764e-06 0.00011070457)
(-0.00012159062 -5.3963792e-06 0.00011516165)
(-0.00011449027 -5.400965e-06 0.00010905618)
(-0.00022675032 6.0422087e-06 0.00010399825)
(-0.00013990158 -1.1917791e-06 0.0001278368)
(-9.6823267e-05 -4.1801771e-06 9.1009722e-05)
(-0.00013502713 5.853218e-07 0.00010024083)
(-0.000142797 5.5877645e-06 0.00012883041)
(-0.00010797091 -1.813057e-06 9.920709e-05)
(-8.5114319e-05 -2.5038016e-07 8.0668131e-05)
(-0.00013727333 -2.9154012e-06 0.00012514393)
(-0.00010521245 -2.6468281e-06 9.8446437e-05)
(-0.00013365048 3.664804e-07 0.00012354667)
(-4.1504265e-05 -1.6998589e-06 3.7611784e-05)
(-0.00024530731 -2.9086827e-05 0.00015962917)
(-0.00011562829 -3.5553132e-06 0.00010778586)
(-5.7505719e-05 -6.3938991e-06 5.1716306e-05)
(-7.2324672e-05 1.4864595e-05 5.6619702e-05)
(-0.00014722633 4.8556824e-06 0.00014571124)
(-0.00010716196 4.3525183e-06 0.00010979393)
(-0.0001048923 -1.9997182e-06 9.8186861e-05)
(-0.0001533735 4.6574832e-06 0.00013802358)
(-0.00010388999 -2.9339963e-06 9.6375713e-05)
(-4.3377125e-05 1.3183281e-05 2.2855563e-05)
(-0.00011510571 -3.5843964e-06 0.00010926828)
(-0.00010219799 -2.87929e-06 9.5209844e-05)
(-0.00011120734 -1.9353619e-06 0.00010367672)
(-3.699604e-05 1.5501768e-05 2.1872012e-05)
(-0.00012797018 -1.2334052e-06 0.00011436699)
(-0.00012978523 -1.048169e-06 0.00012774434)
(4.9493452e-05 7.2158841e-06 -3.9147454e-05)
(-0.00014729834 1.2832582e-06 0.00013289493)
(-4.6040945e-05 1.0085857e-05 2.3770614e-05)
(-8.2852872e-05 -2.5605918e-06 7.8535581e-05)
(-0.00012469022 1.9025448e-06 0.00011295257)
(-5.0653448e-05 -1.8002362e-06 4.3386895e-05)
(-0.00018547688 6.727365e-06 0.00011859745)
(-0.00010588827 -3.138613e-06 0.00010498779)
(-0.00011935396 -3.0636905e-06 0.00011266167)
(-0.00013380452 1.2589695e-06 0.00012564376)
(-0.00013043932 -4.5915913e-06 0.00012694011)
(-0.00010100382 -3.8587499e-06 0.00010144603)
(-0.00011670975 -1.660913e-06 0.00011084117)
(-0.00022258543 -4.3100804e-05 0.00014101163)
(-0.00015531187 2.719937e-06 0.00015240929)
(-0.00010898105 -8.6024258e-07 0.00010350939)
(-0.0001337084 1.2715986e-06 0.0001143719)
(-0.00015941627 3.0818458e-06 0.00015149252)
(-5.722711e-05 -1.254801e-06 4.6080565e-05)
(-0.00014812736 6.6636352e-07 9.2369959e-05)
(-0.00014500626 3.4250934e-06 0.00012743795)
(-0.00011753872 -6.0168959e-06 0.00011893854)
(-0.00012567238 -7.83232e-06 0.00012371905)
(-0.00012998973 3.8454237e-06 0.00012520594)
(-0.00016924816 2.0125827e-06 0.00015302011)
(-0.00014131819 3.7524707e-06 0.00013017125)
(-0.00014346688 9.2222561e-06 0.00013775481)
(-0.0001075098 9.3815341e-06 7.7117423e-05)
(-0.00015232753 2.9062483e-06 0.00014729838)
(-4.2169932e-05 -5.0060376e-06 3.7761332e-05)
(-4.7716267e-05 -3.3861337e-06 4.2477487e-05)
(-0.00016352354 1.8087008e-06 0.00015292986)
(-0.00015628415 8.3983236e-06 0.0001469482)
(-0.00012520696 -3.4460416e-06 0.0001161077)
(-0.00015814937 6.2290853e-06 0.00010118031)
(-0.00016638821 2.4434741e-06 0.00015610284)
(-0.00017115932 3.0361875e-06 0.0001561694)
(2.5748528e-05 -2.7190003e-05 -2.6716855e-05)
(-0.00015427616 5.5390733e-06 0.00014406602)
(1.6195629e-05 3.0534935e-05 -2.1408578e-05)
(-0.00023081544 -1.9715908e-05 0.0001974025)
(-0.00017465795 4.1554889e-06 0.00016054829)
(-0.00014095368 2.1761383e-06 0.00014004407)
(-0.00013503467 2.1516752e-06 0.00012835704)
(-0.00013092146 3.7563838e-06 0.0001233791)
(-0.000160784 4.2696696e-06 0.00015605905)
(-0.00014096737 2.1374386e-06 0.00013273181)
(-2.8218253e-05 1.5170102e-05 1.7319279e-05)
(-0.00012786274 2.6029224e-06 0.00012542689)
(-0.00014238501 -6.4397724e-06 0.00013352072)
(-0.00015599689 6.038786e-06 0.00014800318)
(-0.00017765477 3.5033925e-06 0.0001674457)
(-0.00015333164 -1.7267724e-05 8.6790215e-05)
(-0.00016839565 3.1535185e-06 0.00016461713)
(-0.00016985806 6.9501295e-06 0.00016183298)
(-0.00017094715 3.1999491e-06 0.00016212914)
(-0.00014600317 1.6709983e-06 0.00013954233)
(-0.00014782078 -5.026354e-06 8.2799016e-05)
(5.2666271e-05 -7.7650473e-06 -4.6280443e-05)
(-4.5442487e-05 -7.3003131e-06 5.4840217e-05)
(-0.00012081696 -4.8865086e-06 0.00011039981)
(-0.00015380662 -1.7392253e-06 0.00013913129)
(-0.00012134809 -3.7177475e-06 0.00010939749)
(-0.00016434832 -2.209454e-05 8.4868465e-05)
(-0.00014475478 1.2335796e-05 9.0812282e-05)
(-0.00014410917 -1.2212724e-06 0.00013540628)
(-0.00016298016 7.7812115e-06 0.00015769826)
(-0.00013865933 1.1132174e-05 8.5777307e-05)
(-0.00015706447 1.3269003e-06 0.00015778915)
(-0.00014067548 1.2236677e-06 0.00013156386)
(-0.00012892368 -6.9743614e-06 0.00012407159)
(-0.00014596108 4.8994208e-06 0.00014311089)
(-0.00015062901 4.4499062e-06 0.00014696811)
(-0.00017408373 1.512862e-06 0.00016787057)
(-0.00015462572 -1.5398876e-06 0.00014197344)
(-0.00013806732 7.6961684e-07 0.00013214937)
(-0.0001394986 6.9233148e-06 9.1205562e-05)
(-0.00014488211 -9.1457652e-06 9.0995458e-05)
(-7.3837386e-05 -3.5071561e-05 3.6232533e-05)
(-0.00015351635 7.013844e-07 0.00015689922)
(-0.00013875609 -5.8129357e-06 0.00013265587)
(-0.00013277208 1.2985097e-06 0.00013618168)
(-0.00018644719 -4.0073909e-05 0.00010176285)
(-0.00012197411 -6.794865e-07 0.0001203969)
(-0.00015727156 -2.0054097e-06 0.00015404907)
(-0.00020401695 -1.069553e-05 0.00017414722)
(-0.0001201959 -9.7674323e-07 0.00012475098)
(-0.00014604416 -6.2627184e-06 0.00013438324)
(-0.00013907858 1.2596622e-07 0.00013545245)
(-0.00016273865 3.5004487e-06 0.00014823681)
(-0.00017321381 1.6887853e-05 0.00014059337)
(-0.00010490992 1.725529e-07 9.724674e-05)
(-0.00019227457 -1.5190469e-05 0.00015218006)
(-0.00014754499 -9.5477046e-07 0.00013134679)
(-0.00013026728 -3.8997916e-06 0.00012821476)
(-1.5251287e-05 -1.7507763e-05 4.1618511e-05)
(-0.00013850459 -2.4175219e-06 0.00013047429)
(-1.4667332e-05 -1.5290801e-05 3.8008613e-05)
(-0.00014067401 -1.2025571e-06 0.00013434788)
(-0.00021234549 -2.8912877e-05 0.00014447019)
(-0.00019971993 -8.1074272e-06 0.00010991611)
(-0.00011909144 -6.7564748e-06 0.00011248078)
(-2.3690953e-05 1.0546193e-05 9.5707533e-06)
(-0.00014861021 6.5559066e-06 0.00013583969)
(-0.00015770257 8.2102423e-06 0.00014549731)
(-0.0001254541 -2.0348984e-06 0.00010947369)
(-0.00012971862 -1.0487516e-05 0.00012663021)
(-0.0001623718 6.5708501e-06 0.00014846066)
(-0.0001344507 -8.6349812e-06 0.00012659627)
(-0.00013605774 -1.0225856e-05 0.00013242586)
(-0.00013695001 -3.0088175e-05 6.8803882e-05)
(-0.00012488791 -4.4857547e-06 0.0001186094)
(-0.00011168333 -7.0830434e-06 0.00010865373)
(4.4829128e-06 -8.1350568e-06 -1.2501301e-05)
(-0.00014600254 -5.2316399e-06 0.00013442625)
(-0.00012447473 -2.8640727e-06 0.00011774006)
(-0.00013607118 -3.7588592e-06 0.00012463554)
(-0.0001401218 -3.600196e-05 7.157289e-05)
(-0.00011383581 -6.9435129e-06 0.00011251272)
(-0.00011741255 -7.4430268e-06 0.00011349002)
(-0.00013864311 -3.4289615e-06 0.00012662523)
(-0.00015429578 3.5422446e-06 0.00015412036)
(-0.00011577834 -6.4872496e-06 0.00010845898)
(-0.00013923312 -5.0311443e-06 0.00012792315)
(-0.00012043623 -8.4660906e-06 0.00011901946)
(-0.00011889873 -5.7985308e-06 0.00011023497)
(-0.00011779652 -6.3667073e-06 0.00011019232)
(-0.00012526537 -4.4424193e-06 0.00012094776)
(-0.00012814485 -4.3817706e-06 0.00012264492)
(-0.0001135086 -4.4609253e-06 0.00010357495)
(-6.240923e-05 1.0135518e-05 4.8279795e-05)
(-0.00012997649 -3.4287785e-06 0.00012188293)
(-7.2309962e-05 1.1506165e-05 5.494574e-05)
(-0.0001258009 -3.8976326e-06 0.0001219835)
(-0.00010922327 -5.4242907e-06 0.00010998693)
(-0.00011381189 -4.3112996e-06 0.00011621096)
(-0.00012744872 3.5657255e-06 0.00012588734)
(-0.00011520392 -2.3713215e-06 0.00011405737)
(-7.0223658e-05 1.327107e-05 5.1972005e-05)
(-0.00013248431 -2.1485883e-06 0.00012351247)
(-0.00012291012 -5.0530729e-06 0.00012331394)
(-0.00016873672 4.2600153e-06 0.00015962841)
(-0.00013549005 -4.7740742e-06 0.00012513406)
(-0.0001535214 8.4836939e-06 0.00014977835)
(-0.00012547806 -3.7321364e-06 0.00012205105)
(-0.00012272839 -6.9128696e-06 0.00011929881)
(-0.00013556394 -3.6270964e-06 0.00012738578)
(-0.00013069365 -7.0792537e-06 0.00012807973)
(-0.00012137176 -6.4792753e-06 0.00011975092)
(-0.00012463907 -7.4817146e-06 0.00011715523)
(-0.00012825194 -9.2581348e-06 0.00012112713)
(-0.00022564228 9.5828026e-06 0.00023050525)
(-0.0001620573 8.1210897e-06 0.00015367985)
(-0.00012301696 -5.3159352e-06 0.00012152705)
(-0.00011284903 -4.5875085e-06 0.00010834153)
(-2.0063819e-05 -1.7852911e-05 4.0802624e-05)
(-0.00013088762 -4.1599235e-06 0.00012504909)
(-0.00011398068 -4.1567045e-06 0.00011133861)
(-0.00012457721 -5.6337823e-06 0.00012110889)
(-0.00011514834 -1.4344702e-06 0.00011280933)
(-0.00013233586 -5.0126823e-06 0.0001337185)
(-0.00012591427 -7.0654657e-06 0.00012612394)
(-0.00012402761 -6.603457e-06 0.00011642437)
(-0.00011776997 -3.1245333e-06 0.00011180326)
(-0.00013422768 -5.8849292e-06 0.00012418971)
(-0.00012750231 -9.1927303e-06 0.00011957952)
(-0.00020139396 -5.0034496e-06 0.00011080677)
(-0.0001300889 -1.0879037e-05 0.00012759383)
(-0.00010045819 -5.8834757e-06 0.00010078656)
(-0.00011420177 -9.2086253e-06 0.00011654329)
(-0.00012376581 -2.693057e-06 0.0001276136)
(-0.00011174507 4.8618292e-06 9.2434316e-05)
(-0.00012430916 -3.5746434e-06 0.00011930975)
(-0.00011439548 -3.068095e-06 0.00011070798)
(-0.00015146633 -2.273749e-05 8.0355839e-05)
(-0.00010130807 -6.4888477e-06 0.00010447113)
(-0.00020432611 3.9976029e-06 0.00019812116)
(-0.00012354991 -5.2428322e-06 0.00012236059)
(-0.00013637488 -2.6003055e-06 0.00013042648)
(-0.00012256287 -4.0567616e-06 0.0001230264)
(3.526491e-05 2.2354159e-05 -4.2377239e-05)
(-0.00015695413 5.3373169e-06 0.00015158929)
(-0.00017547204 4.4078304e-06 0.00016221722)
(1.890614e-05 -2.3023062e-05 -2.7297607e-05)
(-0.00019555374 1.8934032e-05 0.00016438478)
(-0.00014966758 5.3886355e-06 0.00013251364)
(-9.8875125e-05 5.026105e-06 6.9515656e-05)
(-0.00015086416 7.9872057e-06 0.00014116195)
(-0.00014502501 7.5983613e-06 0.00013144272)
(-0.00015108528 4.2757116e-06 0.00013315069)
(-0.0001511838 9.5198038e-06 0.00013574278)
(-0.00015857847 9.0657817e-06 0.00014415895)
(-0.0001607138 6.1973305e-06 0.00013884443)
(-0.00015006 1.1856058e-05 0.00013862808)
(-0.00011201678 -4.7666892e-05 4.5040287e-05)
(-0.00016247865 7.9552764e-06 0.00015777092)
(-0.00015805866 9.0051856e-06 0.00013694602)
(-4.3241529e-05 1.4358694e-05 3.0628344e-05)
(-0.00015283608 9.5873214e-06 0.00013760969)
(-0.00014203266 8.4943366e-06 0.00013202119)
(-0.00022426894 1.6684835e-05 0.00023528946)
(-0.00019012526 -2.0590702e-05 0.00015400006)
(-0.00019780813 -7.1671644e-06 0.00016204132)
(-0.00014667647 7.9541045e-06 0.00013781902)
(-0.00016860949 -2.2197621e-07 8.7477864e-05)
(-0.00025089404 -3.146959e-05 0.00016993436)
(-0.00013988043 9.4617759e-06 0.00013168045)
(-0.00015399097 5.6042681e-06 0.00014550643)
(-0.00014765287 8.062664e-06 0.00014510244)
(-0.00014082991 8.0003733e-06 0.00014024844)
(-0.00017109131 8.1852849e-06 0.00015795646)
(-0.00014874318 5.8137853e-06 0.00014436239)
(-0.00015465216 9.8606805e-06 0.00014738324)
(-2.528561e-05 6.5970214e-06 2.8461813e-05)
(-0.00017321906 7.6279829e-06 0.00017292841)
(-0.00013536508 5.061316e-06 0.00013332952)
(-0.00014504921 1.2348015e-05 0.00013692949)
(-0.000181683 6.7207009e-06 0.00018477379)
(-0.00013677632 1.0223591e-05 0.00013620228)
(-0.00014307057 1.1197025e-05 0.00013080045)
(-0.00012162083 2.1791603e-06 0.00010603436)
(-0.00018892874 1.616516e-05 0.00014843902)
(-0.00013894806 1.1811274e-05 0.00013415302)
(-0.00016839639 8.8532059e-06 0.00016573402)
(-0.00014240527 1.2429362e-05 0.00014127603)
(-0.00016486815 5.5642154e-06 0.00015901849)
(-0.00014579833 1.1656418e-05 0.00013588055)
(-0.00014789678 1.103404e-05 0.00013812128)
(-0.00014960556 9.1798564e-06 0.00014544208)
(-0.00013847154 1.2006859e-05 0.00013341131)
(-0.00017470999 6.2692882e-06 0.00016530641)
(-0.00013961975 9.1560135e-06 0.000129647)
(-0.00015375268 4.2341878e-06 0.00014639972)
(-0.00016930778 4.7570604e-06 0.0001603978)
(-0.00014912917 8.8551755e-06 0.00013679804)
(-0.00011914182 8.7687945e-06 0.00011896031)
(-0.00014692389 6.737287e-06 0.00013143649)
(-0.00014770037 8.1317997e-06 0.0001421688)
(-0.00012786594 -6.0433814e-06 0.00011501175)
(-0.0001497847 6.502451e-06 0.00014246041)
(-0.00012524589 9.9373288e-06 0.00012782371)
(-0.00015507613 1.2366546e-05 0.00014684073)
(-0.00014219911 6.5567661e-06 0.0001427833)
(-1.0503459e-05 -1.1398024e-05 2.9554577e-05)
(-6.8022795e-05 -2.6946369e-05 3.085361e-05)
(-0.00013135962 8.7273188e-06 0.00014060592)
(-0.00014735113 4.2933342e-06 0.0001420115)
(-9.2775465e-05 -1.6530777e-06 9.7442889e-05)
(-0.00014444854 8.0699512e-06 0.00014085661)
(-0.00014926973 8.1194087e-06 0.000151725)
(-0.00014390011 5.7084431e-06 0.00014267869)
(-0.00014648578 1.0758511e-05 0.00013851838)
(-1.1561425e-05 -6.1893922e-06 3.1661198e-05)
(-0.0001129583 -5.1173097e-06 0.00010117185)
(-0.00014354662 6.8407901e-06 0.00014221487)
(-0.00014991151 6.3870534e-06 0.00014525869)
(-0.00014905375 1.1671261e-05 0.0001419275)
(-0.00014971407 1.0239055e-05 0.00013912773)
(-0.00016267143 1.4416806e-05 0.00015219472)
(-0.00015157002 6.459626e-06 0.00014623533)
(-0.00015336422 1.1030591e-05 0.00014519766)
(-0.00012019054 -4.7138683e-06 0.00011322771)
(-0.00014941168 8.9872504e-06 0.0001437999)
(-0.00011640406 -6.7299597e-06 0.00011056428)
(-0.00012456789 -4.46019e-06 0.00011803004)
(-0.00013275124 -5.3051194e-06 0.00011865131)
(-6.842886e-05 -2.7626243e-05 3.2919639e-05)
(-0.0001281673 -5.5879626e-06 0.00012345637)
(-0.00012124407 -7.4460752e-06 0.00011640306)
(-9.9141833e-06 -1.1388792e-05 3.8225314e-05)
(-0.00012002232 -3.5440065e-06 0.00011662384)
(-0.0001344403 9.4966717e-06 0.00012591457)
(-0.00014766795 9.4934475e-06 0.00013969684)
(-0.00015575902 2.5203437e-06 0.00014544543)
(-0.00015382122 6.323191e-06 0.00015307786)
(-0.00015054967 5.7217515e-06 0.00014220034)
(-0.00013461174 6.792971e-06 0.00012529747)
(-0.00014342767 4.5785272e-06 0.00014198226)
(-7.4460526e-05 7.0713121e-06 5.4890975e-05)
(-0.00016210542 5.5261932e-06 0.00014781693)
(-0.00014820831 -1.1646777e-06 0.0001352821)
(-0.00014966185 -6.3920638e-06 0.000140356)
(-0.00015710737 9.9411244e-06 0.00014807074)
(-0.00012186014 6.9222548e-06 0.00011307258)
(-0.00018798744 2.0880248e-05 0.00014667904)
(-0.00015885557 5.0765384e-06 0.00015384535)
(-0.00014412255 6.8099256e-06 0.00013441384)
(-0.00014598652 4.0751588e-06 0.00015062646)
(-0.00021905292 2.0301204e-07 0.00019935007)
(-0.00011632456 -4.6538992e-06 0.00011485737)
(-0.00013766693 9.1144797e-06 0.00011682841)
(-1.1152993e-05 -1.4496744e-05 3.9702932e-05)
(-0.00015093321 3.3364963e-06 0.00015504252)
(-5.9620091e-05 1.2905658e-05 4.7487463e-05)
(-0.0001517585 -1.8571904e-07 0.00014194173)
(-0.00014328357 6.7191766e-06 0.00014188183)
(3.7450424e-05 2.8440622e-05 -4.7875798e-05)
(-0.000165393 5.9993941e-06 0.00016240975)
(-0.00016201213 4.7429483e-06 0.00015909876)
(-6.0417557e-05 1.0714153e-05 4.6027918e-05)
(1.2582679e-05 -1.3712984e-05 -1.6641615e-05)
(-0.0001565582 2.827554e-06 0.00015465224)
(-0.0001725223 4.5909071e-06 0.00016409795)
(-0.00013883954 7.1521655e-06 0.00014417088)
(-0.00012835879 -4.2594958e-06 0.00012842386)
(-0.00015263855 1.8240875e-06 0.00014877602)
(-0.00013741245 3.9958218e-06 0.00014055792)
(-0.00014067826 2.3767589e-06 0.00013986139)
(-0.0001649867 8.4940185e-06 0.00016181334)
(-1.6821253e-05 -2.0233143e-05 -2.3774142e-06)
(-1.2581236e-05 -3.8863859e-06 3.0707704e-05)
(-1.8491198e-05 -1.9570742e-05 4.8713273e-06)
(-0.00015181584 3.6166645e-06 0.0001516563)
(-0.00016464972 2.9018133e-06 0.00016784959)
(-0.00016887991 5.9454692e-06 0.00016254813)
(-0.0001468687 -4.6790584e-06 0.000141628)
(-1.9720292e-06 -1.446276e-05 -3.2358621e-06)
(-0.00014383065 2.9548639e-06 0.00013999321)
(-0.00013839138 6.5086253e-06 0.00014118556)
(-0.00015741025 4.8049186e-06 0.00015441047)
(-0.00026001824 2.2996516e-05 0.00026005474)
(-0.00010652249 -1.2008182e-06 0.00010940065)
(4.9577135e-05 3.5207422e-05 -4.5699922e-05)
(-0.0001264565 -2.7163341e-06 0.00012582524)
(3.6987337e-05 3.5147474e-05 -4.5173985e-05)
(-0.00014045948 6.9395469e-06 0.00014284523)
(-0.00011151648 -3.4680121e-06 0.0001126641)
(-0.00017348166 1.508152e-06 0.00017102763)
(-0.00016595331 -6.0755396e-07 0.00015361154)
(-0.00022949989 -2.7175688e-05 0.00022331335)
(-0.0001288793 -2.5080434e-06 0.00012576147)
(-0.00013634556 1.147179e-06 0.00014332455)
(-0.00017814538 3.1059935e-06 0.00017281366)
(-0.00014391077 4.2875591e-06 0.00014303748)
(-0.00016659174 4.8543266e-06 0.00015724633)
(-0.0001132515 -1.1706094e-06 0.00011192055)
(-0.00015657899 -8.5746461e-07 0.00015794044)
(-0.00013731646 2.4157362e-06 0.00013973221)
(-0.00016201634 3.6528721e-06 0.00016676621)
(-0.00013321941 -4.0648477e-06 0.00012762459)
(-0.00015904354 5.4026572e-06 0.00016020565)
(-0.00015272054 4.0401826e-06 0.00015024187)
(-0.00010578751 -1.1212334e-06 0.00010749803)
(-9.230659e-05 2.4245906e-06 8.7062215e-05)
(-0.00016624655 3.4993418e-06 0.00016259785)
(-0.00016611641 -2.0434825e-06 0.00016060146)
(-0.00017078622 2.6555797e-06 0.00016619283)
(-0.00012885733 4.1570323e-06 0.00013227778)
(-0.00014667775 2.4370151e-06 0.00014843492)
(-0.00012977436 2.4183164e-06 0.00013218226)
(-0.00016645805 3.4255442e-06 0.00016138911)
(-0.00015712872 2.8610798e-06 0.0001596731)
(-0.00014210871 4.0442292e-06 0.00014268249)
(-0.00014602962 1.3932046e-05 0.00012434739)
(-0.0001306328 -3.9061531e-06 0.00011774645)
(-0.00016121735 3.5283142e-06 0.00015048894)
(-7.7560453e-05 7.2931365e-06 6.9980805e-05)
(-0.00014273098 3.8235166e-06 0.0001443689)
(-0.00016333737 1.3733832e-06 0.00017290687)
(-0.00012294075 -8.9337679e-06 0.00011377859)
(-0.00019818427 -1.2025987e-05 7.0985732e-05)
(-0.00017282974 7.9758653e-07 0.00017018224)
(-0.00012130658 -5.6008361e-06 0.00011430892)
(3.5906299e-06 -8.7693228e-06 -6.3454277e-06)
(-0.000137661 5.5937283e-06 0.0001451836)
(-0.00015236279 4.2494058e-06 0.00015052986)
(-0.00016813198 4.9139362e-06 0.00017017432)
(-0.00015808534 3.9109527e-06 0.00015869926)
(-0.00012941549 -3.6856525e-06 0.00011606463)
(-1.3333049e-05 -1.1701736e-06 2.7713231e-05)
(3.4736837e-05 3.6191336e-05 -3.2216431e-05)
(-0.00013264265 -3.924148e-06 0.0001250438)
(-4.5804083e-05 -1.9060684e-05 2.0204109e-05)
(-0.00012353492 3.17316e-06 0.00012773513)
(-0.00014185134 6.9521771e-06 0.00014050134)
(-0.00016318416 4.506152e-06 0.00015899669)
(-0.00015873044 2.8256192e-06 0.00015865268)
(-0.00011496467 -1.3459185e-06 0.00011044178)
(-0.00012045423 -2.388598e-07 0.00011488825)
(-0.00013180931 -3.6439098e-06 0.00012497466)
(-0.00016013799 3.0541005e-06 0.00015201902)
(-0.00013362994 -1.7552902e-06 0.00010082793)
(-0.0001606764 5.3355127e-06 0.00016051534)
(-0.00011167027 -5.947063e-06 0.00010695526)
(-9.9829201e-05 -4.8125809e-06 9.1579717e-05)
(-0.00016470358 2.7788655e-06 0.00015278621)
(-0.00016732271 4.9346358e-07 0.00016293024)
(-0.00017741409 2.4381856e-06 0.00017207404)
(-0.00015621207 2.2725076e-06 0.00015032281)
(-0.00012973024 3.3055662e-06 0.00013107875)
(-0.00013985789 1.787526e-06 0.00014813059)
(-0.0001200424 -3.620916e-06 0.0001151428)
(-0.0001743891 4.2176165e-07 0.00016476744)
(-0.00017806442 -3.4478016e-07 0.00016966026)
(-0.00013299313 1.1451269e-06 0.0001322412)
(-1.8780904e-05 1.3428716e-06 2.4477066e-05)
(-7.8514118e-05 -3.1228723e-05 3.5222448e-05)
(-0.00011445567 -3.9469225e-06 0.00010499978)
(-4.292531e-05 1.467757e-05 2.4637137e-05)
(-0.00015899571 -9.7544143e-07 0.00016010258)
(-0.00018260332 1.5924791e-06 0.00016806677)
(-4.639582e-05 1.2124812e-05 2.9064042e-05)
(-0.00017378385 2.8103225e-07 0.00016796014)
(-0.00016412882 3.0871584e-06 0.00015802627)
(-0.00013566118 3.726746e-06 0.00013831503)
(-5.5221428e-05 -1.7600585e-05 2.7270609e-05)
(-4.0309868e-05 1.5085402e-05 2.0530124e-05)
(-0.00015937845 -1.6693509e-05 0.00013205752)
(-0.00013074627 -3.0674676e-06 0.00012660777)
(-0.00016135297 2.7083411e-06 0.00016313573)
(-0.00010505464 1.7560176e-06 0.00010575949)
(-0.0001623561 3.2485601e-06 0.00015727198)
(-0.00012057523 -2.8718234e-06 0.00012247054)
(-3.0190427e-05 1.0475177e-05 1.4415442e-05)
(-0.00013946358 -3.7387453e-06 0.00013254184)
(-3.5669807e-05 -1.0664476e-05 4.731719e-05)
(-3.8357921e-05 2.3159993e-06 3.6222502e-05)
(-0.00013023389 -1.4038802e-06 0.00012021913)
(-0.00014749075 1.0503168e-06 0.00014054828)
(-0.00012833964 -5.5050439e-06 0.00011851463)
(-0.00013327156 1.5085354e-06 0.00011877681)
(-0.00013499406 -3.7491034e-06 0.00011876681)
(-0.0001327924 -4.7491865e-06 0.00013283801)
(-0.00020029894 2.9825512e-05 8.1764576e-05)
(-0.00013213083 -6.9400072e-06 0.00011903622)
(-0.00010019416 -6.0054802e-06 9.8130224e-05)
(-5.2276219e-05 -5.4838509e-06 6.0256663e-05)
(-9.8828208e-05 -5.8400851e-07 9.8993675e-05)
(-0.00012916721 -5.525565e-06 0.00012165175)
(-0.00010239743 -7.368665e-06 0.00010322405)
(-6.017363e-05 1.5803761e-06 6.5388162e-05)
(-0.00013741894 -4.8511161e-06 0.00013032214)
(-0.00012695044 -4.7689818e-06 0.00011885301)
(-0.00021329714 -1.1111757e-05 0.00022026062)
(-0.00011417766 -6.202924e-06 0.00011209157)
(-0.00028242287 -9.8015984e-06 0.00027527253)
(-0.00011188837 -8.1277659e-06 0.00010550403)
(-0.00014419759 -5.1331467e-06 0.0001317192)
(-9.6796491e-05 -7.2238143e-06 9.5236543e-05)
(-0.00014866161 -1.2340713e-06 0.00014238739)
(-0.00012323296 -2.5386553e-06 0.0001153611)
(-0.00013818203 -3.8769087e-06 0.00013069673)
(-0.00012542284 -2.3686062e-06 0.00011780996)
(-0.00013301194 -8.9537565e-07 0.00012126993)
(-0.00011531198 -7.4122847e-06 0.00011512507)
(-0.00012632405 -3.9644463e-06 0.00011970317)
(-0.00012580764 -4.2207018e-06 0.00012588466)
(-0.00011505433 -3.4273984e-06 0.00011269264)
(-0.00013982372 -3.9970219e-06 0.00013587534)
(-0.00010909694 -4.3898297e-06 0.00010934503)
(-0.00015753258 -1.0081676e-06 0.00014319772)
(-0.00013098238 -1.2450025e-06 0.00012083545)
(-0.00011112999 -8.6441685e-07 0.00010811062)
(-0.00013567252 -2.0453015e-06 0.00012886195)
(-0.00012980585 -1.6346094e-06 0.00012277902)
(-0.00013165614 -2.3429398e-06 0.00012968236)
(-2.4184627e-05 1.2971915e-05 1.2646825e-05)
(-6.6560644e-05 5.035678e-06 5.0628087e-05)
(-0.00013551725 -5.7066566e-08 0.0001237929)
(-0.00013149264 -2.8581567e-06 0.00012623126)