/*--------------------------------*- C++ -*----------------------------------*\
  =========                 |
  \\      /  F ield         | OpenFOAM: The Open Source CFD Toolbox
   \\    /   O peration     | Website:  https://openfoam.org
    \\  /    A nd           | Version:  11
     \\/     M anipulation  |
\*---------------------------------------------------------------------------*/
FoamFile
{
    format      ascii;
    class       volVectorField;
    location    "10000";
    object      wallShearStress;
}
// * * * * * * * * * * * * * * * * * * * * * * * * * * * * * * * * * * * * * //

dimensions      [0 2 -2 0 0 0 0];

internalField   uniform (0 0 0);

boundaryField
{
    wall-fluid_domain
    {
        type            calculated;
        value           nonuniform List<vector> 
50462
(
(0.00043427688 -3.2823266e-05 0.00033812527)
(0.00048534839 -4.9248388e-05 0.00039490089)
(0.00048174782 -3.7349879e-05 0.0002850436)
(0.00044429775 -2.9726148e-05 0.00026214997)
(0.00044323609 6.6753919e-05 0.0002963015)
(0.00051375495 -1.1745828e-05 0.00050473303)
(0.00048741694 -2.3092971e-05 0.00047763159)
(0.00052419686 -2.1927944e-06 0.00052567168)
(0.00052929708 -3.9749604e-05 0.00032616497)
(0.00049132526 -2.11134e-05 0.00048525264)
(0.00057223044 2.1367118e-05 0.00056898704)
(0.0004514321 -2.1416989e-05 0.00027378738)
(0.00047752794 1.2178814e-05 0.00048871651)
(0.00050273758 2.6033621e-05 0.00049787876)
(0.00050251759 2.5461888e-05 0.00049419763)
(0.00056744374 2.0886666e-05 0.00056263423)
(0.00045498321 -1.8255054e-05 0.00027759288)
(0.00045020265 7.8973409e-06 0.0004635405)
(0.00050855909 1.0358555e-06 0.00051644139)
(0.00049791874 -1.238454e-05 0.00030134768)
(0.00052000115 3.0149873e-05 0.0005118391)
(0.00032164848 -1.8865396e-05 0.0002024065)
(0.00044711815 1.1601005e-05 0.00045514181)
(0.00043250487 -1.0497442e-05 0.00029487459)
(0.00055566672 2.2369069e-05 0.00056038781)
(0.00039763905 -1.0887432e-05 0.0002533719)
(0.00052103898 2.9414156e-05 0.00050862525)
(0.00045343555 -2.8410042e-05 0.00044094286)
(0.00051021123 3.9435049e-05 0.0005005498)
(0.00043287967 5.9926155e-06 0.00043834)
(0.00044245828 -1.8810951e-05 0.0003168642)
(0.00057157542 2.6863541e-05 0.00057270447)
(0.0005893381 2.3530101e-05 0.0005878669)
(0.00041207556 -8.9357158e-06 0.00027321619)
(0.00046625753 2.6420363e-05 0.00046020373)
(0.00046025803 1.1839992e-05 0.00046531424)
(0.00059141057 2.1822507e-05 0.00058528681)
(0.00046497124 1.1327855e-05 0.00046078856)
(0.00060646387 3.6387241e-05 0.00059652406)
(0.0005691818 2.8621282e-05 0.00057362082)
(0.00048008979 -2.1141139e-05 0.00027438716)
(0.00042278454 -3.545554e-06 0.00028191803)
(0.00042925713 -9.9379609e-06 0.00029604396)
(0.0005972389 3.8327502e-05 0.0005933277)
(0.00045845271 3.3052818e-05 0.00045350292)
(0.00059012543 4.307294e-05 0.00058330184)
(0.00050996411 2.238963e-05 0.00052180099)
(0.00052606957 2.6229771e-05 0.00052366969)
(0.00054750281 4.1038897e-05 0.00053303627)
(0.00046624294 3.1842038e-05 0.00044848956)
(0.00051857499 -5.3646474e-05 0.00041626592)
(0.00042281677 -1.4052249e-05 0.00023873284)
(0.00051271644 3.066318e-05 0.00051407579)
(0.00039950759 -1.0019866e-05 0.00026234076)
(0.00055138937 -4.9592707e-05 0.00052215153)
(0.00040034774 4.1567788e-06 0.00021640976)
(0.00053166164 -5.6197241e-06 0.00028913802)
(0.00056493026 -5.350637e-05 0.00052474775)
(0.00053716898 -4.3945979e-06 0.00029238325)
(0.00070300394 -4.9049795e-05 0.00040853716)
(0.00051534393 -4.1869624e-05 0.00031870784)
(0.00034211832 -1.492226e-05 0.00020524534)
(0.00040589007 -1.6070237e-05 0.0003046475)
(0.00048437883 -2.9104553e-05 0.0003725638)
(0.00047708034 -2.336496e-05 0.00028825303)
(0.00073754109 -2.8152409e-05 0.00040888547)
(0.00049324827 -2.775811e-05 0.00029733897)
(0.0004045798 -2.0524225e-06 0.00025225062)
(0.00039429436 -7.7516914e-06 0.00024125065)
(0.00048597051 1.5229559e-05 0.00049951449)
(0.00057778236 -6.1000296e-05 0.00051916123)
(0.00055374173 -5.7002977e-05 0.00050414367)
(0.00051971638 -4.8422062e-05 0.00045401195)
(0.00051784476 -5.3976663e-05 0.00045281766)
(0.00056778715 2.2880106e-05 0.00055738359)
(0.000462528 2.527593e-05 0.00045782922)
(0.00049845233 -5.0336858e-05 0.00039448091)
(0.00048551322 -5.4655884e-05 0.0004088284)
(0.00044554878 -3.3003635e-05 0.0003546844)
(0.00040350358 -2.3748287e-05 0.00030918132)
(0.00054673402 1.8980996e-05 0.00055813736)
(0.00043320821 -3.7670907e-05 0.00034382111)
(0.00045552597 -8.3126739e-06 0.00045735927)
(0.00051229663 -4.6123571e-06 0.00027853549)
(0.00055632357 2.2986051e-05 0.0005500063)
(0.00045873192 -8.883729e-06 0.00045430451)
(0.00052670932 -1.415694e-06 0.00052276715)
(0.00046440169 5.2198559e-06 0.00047330702)
(0.0003578304 -3.0624573e-06 0.00037039099)
(0.0004576844 5.731976e-06 0.00046250291)
(0.00048149068 1.0819425e-05 0.00048071916)
(0.00038607926 3.6810918e-05 0.00023721359)
(0.00037601875 2.8732123e-05 0.00022891015)
(0.00042795864 8.3647664e-06 0.00043894195)
(0.00047925304 1.6808886e-05 0.00049006898)
(0.00046864601 4.6330525e-06 0.00047049228)
(0.0003882213 1.2288332e-05 0.00038853228)
(0.00049931934 2.1704961e-05 0.00049960002)
(0.00043173101 1.3766897e-05 0.00043252275)
(0.00050841274 2.2737919e-05 0.00050519017)
(0.00048577265 2.3145958e-05 0.0004949396)
(0.00041198392 3.5068355e-05 0.00025087563)
(0.0003911945 4.496039e-05 0.00024165284)
(0.00044905753 4.8929146e-05 0.00028184064)
(0.0004261719 -4.1354551e-05 0.00034560969)
(0.00048552213 -3.5956051e-05 0.00038103584)
(0.00045097731 5.6451625e-05 0.00028273176)
(0.0004273481 -7.2441218e-06 0.00030959889)
(0.00047309138 4.1255701e-05 0.00027995181)
(0.00041979336 3.7068563e-05 0.00025243949)
(0.00042789152 3.2048571e-05 0.00025570023)
(0.00047244807 4.9614212e-05 0.00028275282)
(0.00043710045 -3.7814149e-05 0.00035278067)
(0.00049623723 -4.1689341e-05 0.00048333992)
(0.00037696602 -3.8285083e-05 0.00031177277)
(0.00048853578 -3.1356809e-05 0.0003867244)
(0.0003920602 -1.7338533e-05 0.0002928522)
(0.00056942756 -5.838779e-05 0.00051899325)
(0.00049094086 -4.6911993e-05 0.00044763117)
(0.00048494404 -4.5826452e-05 0.00044254201)
(0.0004947004 -4.4287278e-05 0.00044303707)
(0.00051061207 -4.4114549e-05 0.00048184678)
(0.00050197554 -4.2507923e-05 0.0004766632)
(0.00044719257 -2.0524697e-05 0.00034219894)
(0.0005204578 -5.1785389e-05 0.00048155189)
(0.0004505075 -4.1641894e-05 0.00039170211)
(0.00049406911 -4.3082329e-05 0.00045918221)
(0.00055484497 -3.5018285e-05 0.0005338642)
(0.00050825765 -3.8437375e-05 0.00046811022)
(0.00050105637 -4.2822752e-05 0.0004451809)
(0.00052720984 -4.3091097e-05 0.00049052349)
(0.0005180539 -5.4486533e-05 0.00047540159)
(0.00045124833 -4.3443271e-05 0.00039462561)
(0.00050313428 -5.106031e-05 0.0004776198)
(0.00043639226 -4.238079e-05 0.00036524069)
(0.00049499694 -1.9301531e-05 0.00048301894)
(0.00051850932 -1.3699486e-05 0.00051687345)
(0.00050218311 -4.1494755e-05 0.00044454442)
(0.00043801681 -4.2234898e-05 0.0003649997)
(0.00042843251 -3.7820899e-05 0.00036783699)
(0.00046049 -3.5186049e-05 0.00037736596)
(0.0004305108 -4.3042204e-05 0.00037842785)
(0.00044476335 -4.8998717e-05 0.00037823791)
(0.00043398669 -2.4275881e-05 0.00034366255)
(0.00054208296 -3.7401402e-05 0.00052379367)
(0.00043735514 -2.3556045e-05 0.0003463412)
(0.00079964848 -6.4461177e-05 0.00068177486)
(0.00044176155 -4.0834419e-05 0.00037152009)
(0.0004523462 -5.484577e-07 0.00044675993)
(0.00048619257 -4.8176743e-05 0.00041192997)
(0.0004872114 -3.8129791e-05 0.00040292389)
(0.00054319132 -4.2589681e-05 0.00049239225)
(0.00047445509 -3.9994018e-05 0.0003957549)
(0.00047165529 6.6806415e-06 0.00046768575)
(0.00044196531 -3.5225616e-05 0.0003723378)
(0.00049126851 -4.015473e-05 0.00046483253)
(0.00041457427 -3.0383222e-05 0.00034072613)
(0.0005284987 -4.7449339e-05 0.00048322347)
(0.00050871844 -3.5897745e-05 0.00040937252)
(0.00078664891 -8.1370607e-05 0.0006781782)
(0.00041927585 -3.522491e-05 0.00035113949)
(0.00049489336 -2.6928571e-05 0.0003957363)
(0.00040950696 -3.6836122e-05 0.00035978073)
(0.00049949719 -2.2235575e-05 0.00039948262)
(0.00044123939 -3.92379e-05 0.00037934231)
(0.00055910371 -3.3292265e-05 0.00053248226)
(0.0005079278 -4.2695202e-05 0.00048856996)
(0.000443284 -1.7864796e-05 0.00033800854)
(0.00047246375 -3.1148055e-05 0.00038976961)
(0.00045812414 -3.5323533e-05 0.00038087008)
(0.00077112784 -6.8027969e-05 0.00068170338)
(0.00052799043 -4.4254614e-05 0.00049127568)
(0.00046005876 -3.9008232e-05 0.00038957004)
(0.00035919069 -3.0131648e-05 0.00030928596)
(0.0004899662 -3.7483489e-05 0.00045834487)
(0.0004684514 -2.5525107e-05 0.00046772326)
(0.00035987567 -3.1279884e-05 0.0003160504)
(0.00047081506 -3.8405134e-05 0.00041322811)
(0.00043719486 -1.0696085e-05 0.00032941536)
(0.0004024228 -1.5460192e-05 0.00031972056)
(0.00049818005 -2.4346475e-05 0.0003975682)
(0.00049051835 -3.6526673e-05 0.00046649815)
(0.00050344595 -3.5974575e-05 0.00046522448)
(0.00039474717 -1.7963409e-05 0.00031053148)
(0.00044520919 -2.2653669e-05 0.00035462339)
(0.00051249911 -1.0898317e-05 0.00051315364)
(0.00047459295 -3.7020684e-05 0.00046047446)
(0.00051290584 -3.7764639e-05 0.00047602824)
(0.00043316805 -4.3702547e-06 0.00043964504)
(0.00039385213 -1.3244727e-05 0.00030269068)
(0.00046831182 -3.0720395e-05 0.00044523028)
(0.00044947759 -2.9032658e-05 0.00043811434)
(0.00043899929 -2.338366e-07 0.0004446402)
(0.00054288451 -4.576626e-05 0.00049179552)
(0.00047951901 -3.8415823e-05 0.00041478606)
(0.00047477642 -3.5510404e-05 0.00046556384)
(0.00054766494 -3.9966625e-05 0.00049099982)
(0.00037186711 -1.9266955e-05 0.00037552975)
(0.00038546446 -1.012057e-05 0.00029630614)
(0.00046598648 -3.6566415e-05 0.00041039582)
(0.00047019964 -3.1117822e-05 0.00046077756)
(0.0003670948 -4.1091778e-06 0.00028759641)
(0.00049361138 -3.7930768e-05 0.00045061812)
(0.00047358747 -2.0308083e-05 0.00045849777)
(0.00031940575 -1.7925798e-05 0.00025199192)
(0.00038285011 -6.5919806e-06 0.00029939779)
(0.00037778422 -1.6650673e-05 0.00037267314)
(0.00043798075 -1.6509003e-06 0.00032916575)
(0.00039803493 -1.1255425e-05 0.0002957392)
(0.00036635024 -7.3223903e-06 0.00028640132)
(0.00038397905 1.3334132e-05 0.00039074255)
(0.00045800462 2.1013537e-05 0.00044961725)
(0.00038057844 -1.5383926e-05 0.00030062603)
(0.00032377763 -2.096189e-05 0.00026134327)
(0.00046624235 -2.2271043e-05 0.00045929568)
(0.00049525157 -1.4914348e-05 0.00050143648)
(0.00051478381 -3.5058968e-05 0.0004749115)
(0.00042050753 -1.0427426e-05 0.00033038215)
(0.00043600778 -1.2780957e-05 0.00042847791)
(0.00056380996 -3.0183051e-05 0.00054206366)
(0.00053600036 -3.8555504e-05 0.00047943132)
(0.00049285809 -3.5088846e-05 0.00044729958)
(0.00057481572 -2.6600852e-05 0.00055506856)
(0.00043444635 -1.3007257e-05 0.00043846063)
(0.00043996645 -5.3053648e-06 0.00043675899)
(0.00044186538 -3.2905786e-05 0.00041456397)
(0.00049378142 -3.0830714e-05 0.00046718398)
(0.00046080697 -1.0680147e-05 0.00045502561)
(0.00058321158 -2.7365236e-05 0.00055858077)
(0.00046282637 -1.6098004e-05 0.00046127831)
(0.00049482182 -9.6995764e-06 0.00048784352)
(0.00052089499 -1.4930664e-05 0.00050633437)
(0.00053375395 -3.766267e-05 0.00047670577)
(0.00050318392 -2.1421023e-05 0.00050120561)
(0.00047386238 -4.7890537e-05 0.00041993816)
(0.00052040059 -2.3420834e-06 0.00052017561)
(0.000578616 -2.8329026e-05 0.00055507898)
(0.00051556877 -7.8769271e-07 0.00051078319)
(0.00049319303 -2.384224e-06 0.00048473568)
(0.00052702775 6.7752063e-06 0.00052341997)
(0.00051839741 -2.9186027e-05 0.00049703384)
(0.00049300804 -2.9187902e-05 0.00046362413)
(0.00039272293 -1.6689947e-05 0.00038560365)
(0.00057240372 -3.7430847e-05 0.00053437844)
(0.00043852586 -2.8779251e-05 0.00040947421)
(0.00051195204 -3.3298047e-05 0.00048845812)
(0.00049938732 -3.586986e-05 0.0004915706)
(0.00039138287 -1.7450811e-05 0.00039145406)
(0.00056281853 -3.7365326e-05 0.00052453441)
(0.00046224361 -3.9700514e-05 0.0004206214)
(0.00053799614 -3.8261914e-05 0.00051464505)
(0.00042361536 -3.64155e-05 0.00040129604)
(0.00053790162 -4.0917921e-05 0.00050571145)
(0.00043431254 -2.6683621e-05 0.00041052559)
(0.00049732461 -3.3227307e-05 0.00045393684)
(0.00049615672 -1.0033163e-05 0.00048440958)
(0.00049763116 -1.5753018e-05 0.00050048521)
(0.00048778014 -3.1991351e-05 0.00045734252)
(0.00047103137 -3.1056216e-05 0.0004338831)
(0.00041560205 -2.1855281e-05 0.0003974677)
(0.00048051653 -2.9332196e-05 0.00045059803)
(0.00053722675 -3.1600389e-05 0.000509583)
(0.00043935124 -3.4752046e-05 0.00038428536)
(0.00048772231 -3.9890705e-07 0.00049297232)
(0.00048563925 -2.9570681e-05 0.00045819001)
(0.00051316587 9.5680323e-06 0.00051938526)
(0.00045634611 -1.1694316e-05 0.00044780841)
(0.00047814256 1.569898e-05 0.00047263488)
(0.00046328045 -3.6573418e-05 0.00043687338)
(0.00052740778 -3.1737761e-05 0.00050337685)
(0.0004746801 -3.0064111e-05 0.00045423274)
(0.00046116616 -3.6428073e-05 0.00043013725)
(0.00040024921 -3.0792897e-05 0.00036634134)
(0.00048665187 -3.2225977e-05 0.00043812804)
(0.00038772214 -3.2971513e-05 0.00036855472)
(0.00049434837 -3.9427646e-05 0.0004528263)
(0.00053139841 -6.5712139e-06 0.00053745613)
(0.00053513492 4.0916533e-07 0.00053229201)
(0.00048180802 -3.91023e-05 0.00043768287)
(0.00039097731 -3.3446949e-05 0.00036363601)
(0.00045908236 -3.4855386e-05 0.00040883212)
(0.00042149767 -3.2402882e-05 0.00037464454)
(0.00054283274 -2.0187609e-05 0.00052558402)
(0.00048573227 5.2136688e-06 0.00048691986)
(0.00048134301 -3.8839741e-05 0.00042779054)
(0.00045440038 -3.6789127e-05 0.00040800441)
(0.00041175369 -2.2306319e-05 0.00040341332)
(0.0004154599 -2.9906728e-05 0.00038981708)
(0.00034457193 -2.9088271e-05 0.00031364918)
(0.00045531178 -9.7125152e-06 0.0004565439)
(0.00034425945 -3.0855916e-05 0.00032264436)
(0.00042263381 -3.5532198e-05 0.00037708971)
(0.00049301728 -3.7944521e-05 0.00043524101)
(0.00042647354 -2.7189425e-05 0.00040066457)
(0.00051720483 9.9849309e-06 0.00051809251)
(0.00036423276 -2.2500243e-05 0.00035382782)
(0.00055145851 -2.0060869e-05 0.00053036996)
(0.00045994811 -1.0240509e-05 0.00044976876)
(0.00044259126 -3.3561979e-05 0.00038673665)
(0.00042904945 -3.3896131e-05 0.00038739359)
(0.00045296166 -4.4560259e-06 0.00044779336)
(2.2287605e-05 4.1218988e-06 -1.7598878e-05)
(0.0004261433 -2.4025778e-05 0.00039949822)
(0.00041361273 -3.5779702e-05 0.00038779936)
(0.0005048912 6.8245868e-06 0.00050945464)
(0.00042580444 -2.7303918e-05 0.00039929182)
(0.00043272541 1.4336556e-05 0.00044247468)
(0.00051111495 2.0492801e-06 0.0005110962)
(0.00048923105 -3.5764183e-05 0.00043214039)
(0.00048351809 -3.9594978e-05 0.00043254073)
(0.00050884103 4.6227587e-06 0.00050295657)
(0.00051053038 1.2245144e-05 0.00050699444)
(0.00045085833 -8.757119e-06 0.00045084204)
(0.00046270204 -1.3602647e-07 0.00045786059)
(1.3405423e-05 -1.4837407e-05 -1.3380886e-05)
(0.00044725107 1.7065149e-05 0.00044077875)
(0.00062503835 2.3735496e-05 0.00062070459)
(0.00041702117 -3.7157842e-05 0.00036541361)
(0.00044457032 1.4107932e-05 0.00044428878)
(0.00053780828 1.1004447e-05 0.00052665051)
(0.00045879212 1.3432367e-06 0.00046001852)
(0.00047818052 -3.7117497e-05 0.00040880285)
(0.00043606861 1.6389773e-05 0.00044050987)
(0.00043548828 1.5738405e-05 0.00043444584)
(0.00052625753 1.2904732e-05 0.00052031191)
(0.00044087323 -6.2652299e-06 0.00042989748)
(0.0004428289 -3.7860479e-05 0.00038918705)
(0.00063419303 2.8045182e-05 0.00062027986)
(0.0005333181 9.6696796e-06 0.000523562)
(0.00046955269 1.8889187e-07 0.00046231854)
(0.00034162084 -3.328238e-05 0.00030668311)
(0.00042012559 -2.1748886e-06 0.00041436127)
(0.00044712754 1.191635e-05 0.0004490776)
(0.00048533011 1.7924067e-05 0.00048323473)
(0.00046403411 2.1878879e-06 0.00046567994)
(0.00044556122 9.5876388e-06 0.00043949586)
(0.0004485157 1.3253259e-05 0.00044305469)
(0.00047534415 -3.9530265e-05 0.0004084846)
(0.00041618169 -3.437455e-06 0.0004096096)
(0.00048023914 -3.5606536e-05 0.00040750802)
(0.00051423441 4.5351343e-06 0.00050158294)
(0.00048419182 -3.4349227e-05 0.00040957074)
(0.00040643358 -1.4401604e-06 0.00040169267)
(0.00041260461 -3.1967986e-05 0.00037977076)
(0.00050193335 -1.4652534e-05 0.00049070604)
(0.00040514566 -1.9173651e-06 0.00039770443)
(0.00047277655 -3.6992806e-05 0.00042552864)
(0.00035902438 1.6189548e-05 0.00035912733)
(0.00044297385 1.1199032e-05 0.00044261414)
(0.00044883599 -3.53153e-05 0.00038835893)
(0.00051206688 8.7775557e-06 0.00050791681)
(0.00050204091 1.8323267e-05 0.00048513785)
(0.00042453861 -3.2512415e-05 0.00035666368)
(0.00053638105 -2.5378118e-05 0.00050924521)
(0.00047240606 2.4970955e-05 0.00045301621)
(0.00042637914 2.8830702e-06 0.00042396806)
(0.00052077019 1.1754268e-05 0.00050630733)
(0.00043595505 -1.4570314e-05 0.00034748028)
(0.00041574419 -1.9122881e-05 0.00032978589)
(0.0004257568 5.9667357e-06 0.00041867008)
(0.00044357219 -3.2066292e-05 0.00038299796)
(0.00054847517 -2.5405699e-05 0.00051878263)
(0.00040932634 -3.1781877e-05 0.00037455611)
(0.00039193875 -3.2534296e-05 0.00037679969)
(0.00050492103 1.6041538e-05 0.00049220738)
(0.00052849383 -2.4574568e-05 0.00050414331)
(0.00043510451 1.1079984e-05 0.00042779508)
(0.00049295793 1.3222785e-05 0.00048669765)
(0.00049920618 1.8032257e-05 0.00048578553)
(0.00047589863 2.4365463e-05 0.00045545824)
(0.00046894584 1.8128721e-05 0.00047323529)
(0.00049581527 1.8293622e-05 0.00048167333)
(0.00054844501 -2.0756489e-05 0.00052902566)
(0.00041006891 1.693508e-05 0.00039711312)
(0.00045499125 -4.0863593e-05 0.00041631497)
(0.00033332265 1.7496225e-05 0.00032663474)
(0.00047818156 2.4080144e-05 0.00045501461)
(0.0004389501 2.690575e-05 0.00043503141)
(0.00048066921 -3.4725622e-05 0.00041031841)
(0.00042702328 1.1410717e-05 0.00042366503)
(0.00046302781 3.1487001e-05 0.00044667225)
(0.00035321124 -2.3257646e-05 0.00029009123)
(0.0004225609 -3.0707439e-05 0.00035307778)
(0.00039654485 1.4362116e-05 0.00039279904)
(0.00054502436 -4.1192449e-05 0.00046224223)
(0.00044841248 2.9771784e-05 0.00043434834)
(0.0004434073 -1.058609e-05 0.00043833771)
(0.00035214794 -2.6426167e-05 0.00028716235)
(0.00043767032 -3.8565729e-05 0.00038374183)
(0.0004096524 -1.8722789e-05 0.00039428101)
(0.00041742543 -3.4823994e-05 0.00035780297)
(0.00047528491 -3.857511e-05 0.00040771584)
(0.00056285571 -4.1628746e-05 0.00047365734)
(0.00051488084 2.6808418e-05 0.00051731755)
(0.00040132855 -3.2991676e-05 0.00036720645)
(0.0004017923 -3.1849577e-05 0.00033248257)
(0.0004490684 -1.0398367e-05 0.00044661125)
(0.00050310664 -1.393312e-05 0.00048641381)
(0.00045179232 -7.9430122e-06 0.00045049591)
(0.00037249085 -3.1224664e-05 0.0003418602)
(0.00049163607 2.1248266e-05 0.00047926479)
(0.0004329134 -2.8448219e-05 0.00035023095)
(0.00042385651 -3.3407709e-05 0.00037776622)
(0.00041502997 -3.8635944e-05 0.00037464204)
(0.00041230742 -3.4198377e-05 0.00035520102)
(0.00032368479 -1.7347571e-05 0.00026464365)
(0.00038450752 -3.6389068e-05 0.00032542428)
(0.00040628445 -3.8384322e-05 0.00035405032)
(0.00039634693 -3.3333676e-05 0.00032662422)
(0.00046185909 2.7549318e-05 0.00045682177)
(0.0004081266 -3.3281947e-05 0.00033909529)
(0.00045478054 -3.5503578e-05 0.00040056252)
(0.00042590235 -3.4988952e-05 0.00036371921)
(0.00054353335 -2.5459185e-05 0.00052087057)
(0.00052178211 -3.7759305e-05 0.0004396701)
(0.00040088077 -3.8081756e-05 0.00033231259)
(0.00043824671 -4.1997389e-05 0.00038956998)
(0.00053707925 -2.9336156e-05 0.0005148211)
(0.00041883122 -3.9709667e-05 0.00035732903)
(0.00037372939 -3.5956087e-05 0.00030962329)
(0.00044620632 -3.6137392e-05 0.00038359836)
(0.00045592077 -4.133285e-05 0.00036849994)
(0.00036707779 -3.6910353e-05 0.00030277884)
(0.00040085223 -3.1084847e-05 0.0003212823)
(0.00040938994 -3.4611192e-05 0.00033466621)
(0.00045579017 -3.4866965e-05 0.00036562387)
(0.00041924901 -3.672999e-05 0.00034632371)
(0.00046565571 -3.6076746e-05 0.00036994358)
(0.00041940377 -3.4760646e-05 0.00034388507)
(0.00033148932 -3.2831048e-05 0.00028595036)
(0.00041664095 -3.5293963e-05 0.00034386067)
(0.00042519286 -3.7452101e-05 0.00036293665)
(0.00033473297 -3.3202259e-05 0.00027709826)
(0.00040254006 -4.2303352e-05 0.00034515246)
(0.00041686185 -3.565121e-05 0.00035647758)
(0.00046194947 -3.8843694e-05 0.00038788089)
(0.00041018739 -3.3717211e-05 0.00033290558)
(0.00052588704 -3.8501485e-05 0.00044244023)
(0.00042080732 -3.3169983e-05 0.00034253024)
(0.0004489196 -4.2032461e-05 0.00037664229)
(0.00041213321 -4.1050647e-05 0.00036048704)
(0.00032342634 -3.5987676e-05 0.00029037065)
(0.00047114074 -3.0891854e-05 0.00037210911)
(0.00043341458 -3.9060633e-05 0.0003770939)
(0.00042553885 -3.7665876e-05 0.00037232345)
(0.00041334545 -2.4183063e-05 0.00032206002)
(0.0004331698 -4.0763946e-05 0.00037907289)
(0.00039350141 -3.3202932e-05 0.00034710609)
(0.00043590812 -2.3895316e-05 0.00041241064)
(0.0004390159 -3.91542e-05 0.00035070763)
(0.00038971409 -3.3206191e-05 0.00034488328)
(0.00042720587 -2.3559779e-05 0.00033596421)
(0.00037769697 -3.3521759e-05 0.00034036081)
(0.00043194744 -4.3111664e-05 0.00038999743)
(0.00033564443 -2.4483547e-05 0.00026888982)
(0.00041345214 -2.9506038e-05 0.00034030181)
(0.00055982352 -1.9130109e-05 0.00045074435)
(0.00045512156 -3.8966803e-05 0.00036453539)
(0.00041418827 -3.1612353e-05 0.00031735422)
(0.00046934167 -2.932671e-05 0.00035983104)
(0.00056422973 -4.0339718e-05 0.00047408038)
(0.00039651449 -4.0673016e-05 0.00032027865)
(0.00044237502 -3.0645465e-05 0.00035754745)
(0.00033641486 -2.992003e-05 0.00026890689)
(0.0004263224 -2.8279843e-05 0.0003335768)
(0.00044918823 -2.5392033e-05 0.00034736334)
(0.00043641225 -2.5712391e-05 0.00040822623)
(0.00044292034 -3.0976585e-05 0.00034211598)
(0.00041286466 -2.5362231e-05 0.00031071274)
(0.00040186419 -3.5488103e-05 0.00032538549)
(0.00042555381 -2.23141e-05 0.00032706395)
(0.00048761601 -1.949278e-05 0.00036666065)
(0.00040225786 -2.8945295e-05 0.00031669488)
(0.00049298273 -1.9499298e-05 0.00036886571)
(0.00041596162 -3.0062152e-05 0.00034454014)
(0.00041947147 -2.8638222e-05 0.00031570081)
(0.0003408605 -2.0106973e-05 0.00026680681)
(0.00043406213 -1.6172459e-05 0.00032291419)
(0.00049809964 -3.8084175e-05 0.00047310951)
(0.00047158412 -2.4449752e-05 0.00036391486)
(0.00042556704 -2.1649135e-05 0.00031453953)
(0.00039121852 -3.4975501e-05 0.0003692832)
(0.00041285254 -2.7533142e-05 0.00031802491)
(0.00043530433 -2.3660772e-05 0.00032673228)
(0.00046849692 -1.1562692e-05 0.0003476318)
(0.00036856516 -2.9956838e-05 0.00033624586)
(0.00035615157 -2.9274782e-05 0.00030084396)
(0.00043726649 -1.9195716e-05 0.00032382228)
(0.00040143985 -2.6456949e-05 0.00032159226)
(0.00058159482 -3.3146985e-05 0.00047879474)
(0.00054886292 -1.9160283e-05 0.00044161556)
(0.00039929995 -3.3884951e-05 0.00031333639)
(0.00042736911 -1.6513067e-05 0.0003229246)
(0.000371415 -3.6151245e-05 0.00031262008)
(0.0004762204 -1.7373727e-05 0.00035943578)
(0.00050305073 -2.6615038e-05 0.00039956361)
(0.00045703746 -3.6119111e-05 0.00040914137)
(0.00047390993 -8.6141759e-06 0.0003496319)
(0.00043167788 -3.0616866e-05 0.00033794149)
(1.3088498e-05 1.0277434e-05 1.4551343e-05)
(0.00049796318 -3.305529e-05 0.00039995251)
(0.00038820519 -1.6457517e-05 0.00029505008)
(0.00037695329 -2.2696305e-05 0.00029352192)
(0.00040237846 -2.2541786e-05 0.00031752693)
(0.00046752854 -2.5711259e-05 0.00036134688)
(0.00043413837 -2.2509292e-06 0.00032554973)
(0.00043352732 -6.4189019e-06 0.00031884799)
(0.00038472042 -1.2715402e-05 0.00028935954)
(0.00037886144 -3.3389027e-05 0.00030255229)
(0.00046172784 -2.9404827e-05 0.00037041435)
(0.00039038928 -3.3984219e-05 0.0003103313)
(0.00043359862 -2.0370052e-05 0.0003215342)
(0.00055857069 -3.6073946e-05 0.00046254466)
(0.00044504482 -4.0860224e-05 0.00040206067)
(0.00042575356 -2.3118818e-05 0.00032240583)
(0.00039163988 -2.8155396e-05 0.00030641112)
(0.00037675734 -4.1829876e-05 0.00030899038)
(0.00042917751 -2.2915205e-05 0.00032186526)
(0.00049244336 -3.2347499e-05 0.00039959246)
(0.00043089523 -3.5299458e-05 0.00033790461)
(0.00042353538 -2.660796e-05 0.00032363122)
(0.00033121685 -3.1392217e-05 0.00030435676)
(0.00050734252 -2.9820591e-05 0.00040465681)
(0.00039700267 -2.7869646e-05 0.00029968576)
(0.00037339565 -1.5767327e-05 0.00027104241)
(0.00031239194 -2.6606366e-05 0.00024224226)
(0.00041465336 -1.0146376e-05 0.00030264263)
(0.00043961485 -3.7880837e-05 0.00037961092)
(0.00038168914 -2.0536756e-05 0.00028507455)
(0.00038017083 -2.8695529e-05 0.00028889069)
(0.00031446526 -3.2640485e-05 0.0002504862)
(0.00050751874 -2.6762146e-05 0.00040318944)
(0.00055941207 -2.4376155e-05 0.00044914186)
(1.0443809e-05 -1.459022e-05 -2.2368135e-05)
(0.00031679335 -8.3282147e-06 0.00023208538)
(0.00037566701 -3.7397349e-05 0.0003295467)
(0.00045983881 -2.4463471e-05 0.00034956834)
(0.00056686556 -3.4891304e-05 0.00047237252)
(0.00039168103 -2.8958361e-05 0.00030748221)
(0.00045872525 -1.6224949e-05 0.00033664659)
(0.00045173025 -3.5610415e-05 0.00035142488)
(0.00043857772 -2.6859131e-05 0.00033266485)
(0.00045087157 -2.123811e-05 0.0003319972)
(0.00036589977 -2.8040585e-06 0.00027085672)
(0.00044761846 -2.3705273e-05 0.00033285614)
(0.0004024166 -3.2727378e-05 0.00037298613)
(0.00043118967 -3.4135297e-05 0.00039591805)
(0.00041549738 -2.7822406e-05 0.0003082559)
(0.00049785241 -3.4788734e-05 0.00048200347)
(0.00050634565 -4.145064e-05 0.00042408912)
(0.00041709416 -1.3494347e-05 0.00030240945)
(0.00039935015 -2.0886103e-05 0.00029963356)
(0.00036735517 -2.5059529e-05 0.00028510757)
(0.00041105441 -1.5184413e-05 0.0002972508)
(0.00040154037 -2.7188232e-05 0.00030546873)
(0.00040470202 -2.5254605e-05 0.00029679053)
(0.00039710412 -2.3084915e-05 0.00029282037)
(0.00038097398 -2.2679773e-06 0.00027359904)
(0.00037036832 -2.006062e-05 0.00028239111)
(0.00049457701 -3.2897211e-05 0.0004014617)
(0.00045980763 -1.5423333e-05 0.00033337882)
(0.00037314507 -1.7335806e-05 0.00027829042)
(0.00043101049 -4.3540653e-05 0.00039872881)
(0.0003999475 -1.6511921e-05 0.00028511497)
(0.00037271893 -2.3143757e-05 0.00028538085)
(0.0004300083 -4.3769728e-05 0.00036977489)
(0.00043236249 -2.0413816e-05 0.0003128811)
(0.00039300296 -3.5431606e-05 0.00031571633)
(0.00029327963 -1.0645558e-05 0.00021484369)
(0.00035471674 -1.7951766e-05 0.00025905934)
(0.00036621968 -3.2604819e-05 0.00029834775)
(0.00039984253 -8.5891488e-06 0.00028031603)
(0.00035127576 -1.1055363e-05 0.00025207735)
(0.00036246409 -3.0436076e-05 0.00028873276)
(0.00035940777 -1.4348168e-05 0.00025131019)
(0.00030003964 -2.382928e-05 0.00023921657)
(0.00041142811 -3.0926736e-05 0.00032816548)
(0.00052239462 -4.0565084e-05 0.00044073558)
(0.00036675924 -9.2646059e-06 0.00026668953)
(0.00029882117 -2.033195e-05 0.00023813864)
(0.00041622515 -2.0958874e-05 0.00030066103)
(0.00048583755 -3.1535026e-05 0.0003946136)
(0.00055366457 -4.3356581e-05 0.00046615668)
(0.00032970396 -1.5089053e-05 0.00024123539)
(0.00042319533 -3.4565115e-05 0.00039258623)
(0.00040026116 -3.5084894e-05 0.00038244825)
(0.00035030828 -2.9959073e-05 0.00033485764)
(0.00042009429 -2.9434833e-05 0.00040275536)
(0.00035728946 -2.6688146e-05 0.00033786178)
(0.0002953762 -1.5850321e-05 0.00022351246)
(0.00038665851 -1.2037604e-05 0.00028642261)
(0.00040055083 -6.2692227e-06 0.00028621267)
(0.00050530433 -2.6976569e-05 0.00041302516)
(0.0004130494 -2.7632163e-05 0.000404423)
(0.00039992057 -2.4995881e-05 0.0003922763)
(0.0004108043 -2.2790206e-05 0.00039462092)
(0.00049646772 -3.0628038e-05 0.00040945859)
(0.00033811878 -1.9496562e-05 0.00026550272)
(0.0003848552 -1.8281115e-05 0.00037371423)
(0.00053986367 -3.1968182e-05 0.00044560538)
(0.00052005744 -3.6159872e-05 0.0004318594)
(0.00039672111 -7.9050213e-06 0.0002856465)
(0.0004344579 -1.5107374e-05 0.000330599)
(0.00038445276 -9.8184981e-06 0.00028229779)
(0.00057123889 -3.2010079e-05 0.00047538745)
(0.00029782915 -2.5088875e-05 0.00023073374)
(0.0004331289 -4.0071691e-05 0.00038062648)
(0.00045513932 -2.8433094e-05 0.00036320262)
(0.00041516335 -3.831496e-05 0.00033587659)
(0.00033531404 -2.4210065e-05 0.00026654451)
(0.00042905467 -1.7853618e-05 0.00032328069)
(0.00045410561 -2.804e-05 0.00036175419)
(0.00042467233 -2.385378e-05 0.00032210702)
(0.000386854 -1.8445905e-05 0.00029713942)
(0.00042534743 -3.3321216e-05 0.00034573719)
(0.00038585118 -1.5580618e-05 0.00029114809)
(0.00042797356 -9.9871653e-06 0.00031771273)
(0.0003830737 -2.0442576e-05 0.00029485178)
(0.00038408228 -2.5557369e-05 0.00030399129)
(0.00036249964 -1.5533622e-05 0.00028026451)
(0.00039157633 -2.1928452e-05 0.00030452064)
(0.0003799008 -2.2986143e-05 0.00030072743)
(0.00042325303 -1.2334907e-05 0.00031079759)
(0.0004392342 -2.5065057e-05 0.00035514409)
(0.00041025349 -1.8245206e-05 0.0003099184)
(0.00041582711 -1.5537199e-05 0.00032323291)
(0.00038106415 -3.3728722e-05 0.00031134778)
(0.00043730878 -3.3236891e-05 0.00035773651)
(0.00042588297 -2.8345799e-05 0.00034618774)
(0.00043463696 -3.216302e-05 0.00035703716)
(0.00039136129 -2.760155e-05 0.00031054184)
(0.00041054392 -1.750467e-05 0.00031651372)
(0.00037521822 -8.5177026e-06 0.00028644607)
(0.00043780448 -2.4892684e-05 0.00035426265)
(0.00042757688 -1.0425567e-05 0.00032904716)
(0.00042873892 -2.250128e-05 0.00033647277)
(0.00043039217 -3.5049898e-05 0.00036256085)
(0.00040007966 -2.4494324e-05 0.0003159189)
(0.00042489853 -2.6775369e-05 0.00034795499)
(0.00045052017 -3.3779733e-05 0.00038049019)
(0.00040288651 -2.7854588e-05 0.00033310088)
(0.00046889751 -3.8293157e-05 0.0003909639)
(0.00037102072 -2.3599847e-05 0.00030051973)
(0.00041787346 -2.8684402e-05 0.00033541672)
(0.00042019797 -2.8696668e-05 0.00034196236)
(0.00044259608 -3.652886e-05 0.00037747022)
(0.00043971884 -3.3575839e-05 0.00037505288)
(0.00043897213 -3.5977335e-05 0.00037690466)
(0.00051614158 -4.0541994e-05 0.00044054975)
(0.00039790419 -3.5449102e-05 0.00033418988)
(0.00040621937 -3.9559917e-05 0.00036328542)
(0.00034697768 -3.0476967e-05 0.00030638497)
(0.00050969753 -4.3363842e-05 0.0004340477)
(0.00041430209 -3.647231e-05 0.00036216444)
(0.00041187725 -3.3552852e-05 0.00034062894)
(0.00041878961 -4.276782e-05 0.0003713301)