/*--------------------------------*- C++ -*----------------------------------*\
  =========                 |
  \\      /  F ield         | OpenFOAM: The Open Source CFD Toolbox
   \\    /   O peration     | Website:  https://openfoam.org
    \\  /    A nd           | Version:  11
     \\/     M anipulation  |
\*---------------------------------------------------------------------------*/
FoamFile
{
    format      ascii;
    class       volVectorField;
    location    "10000";
    object      wallShearStress;
}
// * * * * * * * * * * * * * * * * * * * * * * * * * * * * * * * * * * * * * //

dimensions      [0 2 -2 0 0 0 0];

internalField   uniform (0 0 0);

boundaryField
{
    wall-fluid_domain
    {
        type            calculated;
        value           nonuniform List<vector> 
34907
(
(0.00064091899 8.9975762e-05 0.00018736563)
(0.00056608169 6.2977287e-06 0.00034902998)
(0.0007217796 -8.067917e-05 0.00040947719)
(0.00072629576 -0.00011543678 0.0003245826)
(-8.4923465e-05 4.8000718e-05 -4.5672087e-05)
(0.00073660688 -0.00012181772 0.00034778234)
(-0.00010401413 4.6104841e-05 -6.0534973e-05)
(0.00048004178 -9.0423829e-05 0.000211361)
(0.00062078602 -9.025912e-05 0.00032421825)
(0.00063394393 0.0001089081 0.00024857109)
(0.00072395268 0.00011126095 0.00035212838)
(0.00063830071 0.00010003715 0.00028782656)
(0.00067692905 -7.0478089e-05 0.00015179583)
(0.00062303403 7.0749778e-05 0.00014334368)
(0.00069356043 9.3001893e-05 0.00036212726)
(0.00061767641 -8.4534665e-05 0.00015681468)
(0.00052160393 7.5704429e-05 0.00014285012)
(-5.3120057e-06 2.160462e-05 1.5454177e-05)
(0.00082961064 1.254127e-05 0.0004983442)
(0.00072266266 -0.00011495474 0.00023800006)
(0.00063125492 -9.7025914e-05 0.00032379872)
(0.00049146921 -9.2490207e-05 0.00022710322)
(0.0006442433 -1.3341737e-05 0.00039396367)
(1.7738841e-06 1.5489275e-05 -4.1242524e-05)
(0.00060366259 9.7783198e-05 0.00021086593)
(0.00071363729 -0.00011252776 0.00022087384)
(0.00048321893 -8.9283706e-05 0.00020172208)
(0.00063961511 0.00010583893 0.00029506202)
(0.00052025573 -4.5623299e-05 0.00012154938)
(0.00068634417 8.0921678e-05 0.00037250037)
(0.00062099825 0.00010349073 0.00020582327)
(0.00072715814 0.00011164253 0.00036273666)
(0.00049779961 4.5813009e-05 0.00014394877)
(0.00058087555 -6.1009469e-05 0.00032441842)
(0.00058892205 -3.7818033e-05 0.00035382181)
(0.00070300637 9.4099254e-05 0.00037973635)
(0.00067600441 4.8829987e-05 0.00040448039)
(0.00057488158 -7.1129474e-05 0.00032043306)
(0.00044603409 -2.2762271e-05 0.00022105801)
(0.0007319045 -0.00011271071 0.00033700592)
(0.00069363169 -8.9320774e-05 0.00018901966)
(0.00066418362 -3.2485174e-05 0.00041908728)
(0.0007046483 9.0931488e-05 0.00018815455)
(0.00057168736 2.2962477e-05 0.0003485871)
(0.00033703689 5.5701584e-06 0.00021724853)
(0.00036839099 1.085971e-05 0.00016331251)
(0.0006384988 -9.076769e-05 0.00031715769)
(0.00056116238 9.5105188e-05 0.00023423538)
(0.00071178434 -5.624318e-05 0.00041975706)
(0.00043882564 1.6729518e-05 0.00012950865)
(0.00056577541 0.00010613539 0.00025022708)
(0.00074743608 -0.00011427153 0.00035465213)
(0.0007203231 0.0001245975 0.00027068151)
(0.00061845185 4.5402904e-05 0.00036934915)
(0.00063534179 -9.5476696e-05 0.00020255802)
(-7.9937463e-05 5.3851343e-05 -3.9291051e-05)
(0.00064302234 -0.00010369158 0.00028789299)
(0.00072367131 0.00011890359 0.00025366128)
(-2.3533854e-05 6.5993099e-05 -2.9708039e-05)
(2.4864454e-05 4.0548325e-05 3.1152071e-05)
(1.2758487e-05 3.6714243e-05 2.2259958e-05)
(7.5630161e-06 3.5288411e-05 1.6874004e-05)
(0.00070506975 -0.00012227922 0.00025252054)
(-2.0086606e-05 8.3636317e-05 -4.9398577e-05)
(-2.4209484e-05 7.772412e-05 -3.7626599e-05)
(0.0006224227 -4.9200931e-05 0.00012475755)
(0.0007172135 0.00011923173 0.00032357759)
(0.0006717027 9.7213566e-05 0.00021328298)
(2.3064932e-05 2.6762765e-05 2.6152476e-05)
(0.00067429599 -9.4614169e-05 0.00019681461)
(0.0005913614 -9.5109866e-05 0.00023489882)
(0.00056306157 5.2529059e-05 0.00013317956)
(0.00068297757 0.00010236205 0.0003382039)
(0.00058473937 -9.538666e-05 0.00025135039)
(0.00059091611 5.6262522e-05 0.00034992883)
(0.00069906976 0.00010662026 0.00020100586)
(0.00072187619 -7.0089396e-05 0.000418739)
(0.00067912102 0.00010299765 0.00032966373)
(0.00048365619 -3.2212414e-05 0.00029434008)
(0.00071920204 0.00012323306 0.00028431757)
(0.00061384068 4.4606547e-05 0.00036862358)
(0.00073796707 -8.5962716e-05 0.00039324245)
(-4.2845085e-05 3.8703635e-05 -4.04078e-06)
(0.0006249474 8.3628565e-05 0.00033189469)
(0.00064455077 -9.5966358e-05 0.00033350643)
(0.00062265853 -6.9005206e-05 0.00015704444)
(0.00068727594 -8.0476549e-05 0.000180039)
(0.00059923526 -0.00010563793 0.00024813561)
(0.0006459145 -0.00010079249 0.00029101897)
(0.00068657939 8.1190031e-05 0.0001797677)
(0.00062952358 8.7912844e-05 0.00033059288)
(0.00061678192 -4.3428013e-05 0.00036294072)
(0.00069786094 7.8429563e-05 0.00018617584)
(0.000584574 4.698943e-05 0.0003443926)
(0.00073684862 0.00012095679 0.00032548402)
(0.00073123591 0.00011779913 0.00031240603)
(0.00073629619 0.00011568711 0.00023993352)
(0.00071833215 0.00011481389 0.00024720062)
(0.00064769259 -0.00010510663 0.0002856276)
(0.00067866091 7.2232131e-05 0.00038696498)
(0.00063784612 -0.00010258093 0.00021447441)
(-0.00012160872 4.8855204e-05 -5.3267854e-05)
(0.0004160607 3.6809314e-06 0.00022646974)
(0.00070929787 -0.00011802294 0.00025040302)
(0.00075975987 -7.7089773e-05 0.00042852132)
(0.00048036561 -3.038738e-06 0.00026842204)
(0.0008406972 1.2610909e-05 0.00049478394)
(0.00067733041 -9.1244881e-05 0.00019310154)
(0.00075586987 -0.00010704211 0.00034892087)
(0.00057568514 -7.4496679e-06 0.00035533633)
(0.00071600824 0.00012177467 0.000276024)
(0.00071719241 9.5314924e-05 0.00020535233)
(0.00057391202 2.1192613e-05 0.00035490169)
(0.00065737586 6.0380338e-05 0.00037821274)
(0.00066965213 -1.9355426e-05 0.00041343287)
(0.00071129321 0.00012085466 0.00028718854)
(0.00071301382 0.00011841753 0.00025824434)
(0.00067207447 -5.6242505e-05 0.00038407334)
(0.0005163121 -8.1480118e-05 0.00021069198)
(0.00065248294 -8.7141803e-05 0.00033572316)
(0.00080976528 9.1065121e-05 0.00043782497)
(0.00073468659 -8.2937458e-05 0.00039289958)
(0.00044750387 -1.9452244e-05 0.00012522744)
(0.00047394015 3.4584068e-05 0.00010100681)
(0.0006340882 -9.2864041e-05 0.00032187751)
(0.00070915028 -0.00011757127 0.00026787243)
(0.00052408744 -9.0313721e-05 0.00022289051)
(0.00079841558 8.2634931e-05 0.0004397808)
(0.00068131182 -0.00010313001 0.00029343791)
(0.00075996294 -8.0433835e-05 0.00042789406)
(0.00068828376 -0.00010433618 0.00031540288)
(0.00067422448 0.00010137857 0.00032339834)
(0.0007646668 0.00011304223 0.00023544554)
(0.00072878407 0.00010153392 0.00022600262)
(0.0004470041 -4.1217541e-05 0.00011024493)
(1.0834238e-05 3.9321947e-05 2.5143789e-05)
(0.00061438075 5.901168e-05 0.00013690937)
(-1.7095632e-05 8.4397606e-05 -6.342472e-05)
(0.00065193314 0.00010704785 0.00027915315)
(0.00063491755 8.5359858e-05 0.00032518281)
(0.0005832098 -4.9425386e-07 0.00036739774)
(0.00064075374 -9.7236258e-05 0.00019794873)
(0.00063045008 -0.00010004916 0.0002087018)
(0.00049188465 -3.0018947e-05 0.00019106194)
(0.00038103177 1.8704208e-05 0.00020436874)
(0.00044662399 -4.067924e-05 0.00016912632)
(0.00068095858 0.00010870407 0.00031804404)
(0.00066905297 0.00010552215 0.00026657506)
(0.00036164239 1.6576289e-05 0.00018651151)
(-2.3852113e-05 6.0498365e-05 -1.923677e-05)
(0.00063240461 9.2426968e-05 0.00031615166)
(-2.0434896e-05 7.3928638e-05 -6.1722806e-05)
(0.00042547993 -2.7597412e-05 0.00011523394)
(-1.9628574e-05 6.6567972e-05 -4.5779133e-05)
(-5.9429024e-05 5.3874219e-05 -3.002117e-05)
(2.8703028e-05 3.2321733e-05 3.4833715e-05)
(0.00047983727 3.6903752e-05 0.00013467784)
(3.0904388e-05 2.4486021e-05 3.0477776e-05)
(3.045214e-05 2.6146563e-05 2.1477768e-05)
(-0.00011117881 4.2462024e-05 -5.2338636e-05)
(2.5432728e-05 3.151942e-05 1.5708195e-05)
(0.00067000545 0.00011218774 0.00027995782)
(0.00061059955 -6.2796773e-05 0.00015972163)
(0.00013448176 -5.9270296e-06 7.0438352e-05)
(0.00076369142 -8.5481701e-05 0.00019942511)
(0.00053054849 -3.3676889e-05 0.00011915069)
(0.00054666206 3.8547888e-05 0.00013540571)
(2.3113895e-05 -9.8127378e-06 1.8053188e-05)
(0.00068629966 -0.00010041452 0.00028220491)
(0.00066456271 7.4216825e-05 0.00016663447)
(0.00073095631 8.315815e-05 0.00021395064)
(0.00069241762 -0.00010582932 0.0002941331)
(0.0006103729 -8.0570164e-05 0.00018308166)
(1.4084191e-05 2.2461704e-05 6.9762691e-06)
(0.00044289818 -5.5926178e-06 0.00019456086)
(-5.2560625e-05 2.5158853e-05 -1.5540921e-05)
(0.00075581113 -9.5462567e-05 0.00039665241)
(0.00038074181 -7.3357755e-06 0.00021894665)
(0.00075136543 -8.1755203e-05 0.00039793408)
(0.00081138188 9.6907695e-05 0.00043032859)
(0.00071972113 0.00011171677 0.00025277355)
(0.00062665579 -8.2767294e-05 0.00031193888)
(0.00057587125 2.5077845e-05 0.00035299968)
(0.00067297674 -2.6721092e-05 0.00040947592)
(0.00051362711 -2.0612601e-05 0.00019942091)
(0.00075042845 -0.00010905537 0.00033552538)
(0.0004569706 -1.3264458e-05 0.00022919765)
(0.00051639873 -2.7880781e-05 0.00019829664)
(0.00048169044 3.8063974e-06 0.00022734338)
(0.00040734257 -2.6349791e-05 0.00025722273)
(0.00073522408 -0.00011084937 0.00027252228)
(0.00041399203 1.9235769e-05 0.0002255913)
(0.00080679124 9.8610972e-05 0.00042038999)
(0.00075758246 9.5801293e-05 0.00022299309)
(0.00018297621 -8.3889381e-06 9.9045002e-05)
(0.00046648649 1.1071916e-05 0.0002396848)
(0.00042847219 -8.1655902e-06 0.00026620218)
(-1.5526464e-05 3.482441e-05 1.7216491e-05)
(0.00077135731 0.00012541325 0.00025372697)
(0.00045564075 1.8982432e-05 0.00023023433)
(0.00047192007 4.3316056e-05 0.00027144145)
(0.00057982864 1.9391078e-05 0.00035740428)
(-0.00012208329 3.7778378e-05 -6.4498227e-05)
(0.00067608958 -1.9484838e-05 0.00041189793)
(0.00072742155 0.0001243905 0.00027077615)
(0.00072281538 -0.00010605224 0.00025397583)
(0.00054334113 -5.2046409e-05 0.00011778698)
(0.00049690953 4.2681879e-05 0.0001278601)
(0.00056943672 4.5512315e-05 0.00013125686)
(0.00068819488 -6.3263428e-05 0.000153334)
(-0.00012804892 4.9648359e-05 -5.7735814e-05)
(0.00020048573 -1.3538992e-05 0.00011234661)
(-1.9509235e-05 5.7792335e-07 -3.6401507e-05)
(0.00063953144 -9.5086748e-05 0.00030874244)
(0.00072555173 -0.00011249647 0.00028053149)
(-3.215874e-06 2.2747058e-05 1.543016e-05)
(-2.0596328e-05 7.0282422e-05 -4.3244969e-05)
(-2.4360358e-05 6.9844593e-05 -4.0033449e-05)
(0.00073771996 0.00010943232 0.00033198007)
(-2.7622134e-05 2.1403787e-05 -4.8533635e-05)
(0.00044657433 1.3236222e-06 0.00019787483)
(0.00051333734 -3.6976802e-06 0.00019913103)
(0.0007295509 0.00010443252 0.00035231505)
(0.00049659293 1.7044042e-05 0.00023713019)
(0.00045014645 1.0675345e-05 0.00022118057)
(4.3103142e-05 1.7022458e-05 3.6714045e-05)
(4.0452328e-05 2.1529292e-05 2.8107161e-05)
(1.3894127e-05 3.7430256e-05 2.5392612e-05)
(-1.3289571e-06 1.4292825e-05 1.7572126e-05)
(-3.2261724e-05 5.9510384e-05 -7.407134e-05)
(0.0003885174 -1.6981398e-05 0.00015071974)
(0.00046328184 2.6698074e-05 0.00022295435)
(0.00046624554 2.0319923e-06 0.00019256477)
(0.00053243701 -8.2860495e-06 0.00018228132)
(0.0003881582 -3.8696808e-05 0.00015670476)
(0.00041501098 6.6892364e-06 0.00020284419)
(2.0445118e-05 3.5748941e-05 3.6874876e-05)
(-1.8800157e-05 6.6138033e-05 -7.2991326e-05)
(0.00042601244 6.9166854e-06 0.00018605803)
(0.00063497221 -3.1856432e-05 0.00018981488)
(0.00075325049 0.00011371859 0.00034825365)
(0.00076822563 0.00010752176 0.00023548239)
(0.00066938223 0.00010742836 0.00027424225)
(0.00043833586 1.3825246e-05 0.00017855571)
(-2.8759829e-05 1.6556696e-05 -3.927667e-05)
(-3.085203e-05 3.766069e-05 -7.661825e-05)
(0.00070601108 0.0001044514 0.0002298883)
(3.4738768e-05 2.6193963e-05 2.8407272e-05)
(-2.363677e-05 7.4072351e-05 -6.5192723e-05)
(-2.5405334e-05 7.4951925e-05 -4.3958593e-05)
(5.3848365e-05 1.3785029e-05 2.9804609e-05)
(-3.2241594e-05 5.351564e-05 -8.0657798e-05)
(0.00061659972 -9.4746999e-05 0.00019912269)
(8.6376588e-06 2.0484309e-05 2.7440095e-05)
(1.3213398e-05 1.9683606e-05 2.1079189e-05)
(7.9374641e-06 1.3718846e-05 1.5510072e-05)
(0.00048322742 2.7185432e-05 0.00012119438)
(0.00067709707 -5.9508522e-05 0.00015232729)
(2.2802056e-05 2.7935286e-05 3.8571657e-05)
(0.00061951756 -8.5303014e-05 0.00021604054)
(5.0368061e-05 2.0152624e-05 2.6850642e-05)
(-2.6448503e-05 6.9173119e-05 -6.6347698e-05)
(-1.6098934e-05 5.7615809e-05 -6.5702096e-05)
(0.00067827196 0.00011467016 0.00029208284)
(3.7911212e-05 2.5625864e-05 2.696823e-05)
(0.00064772147 -9.4405339e-05 0.00027164007)
(-3.9423354e-05 6.0067956e-06 -4.6023475e-05)
(0.00077290332 -0.00011114864 0.00033707448)
(-1.8587335e-05 2.3638398e-05 -5.1463022e-06)
(3.2656035e-05 -4.9381852e-06 1.059907e-05)
(0.00052762257 2.4804474e-06 0.00018363985)
(-0.00010034819 2.8362426e-05 -4.5949617e-05)
(0.0004688417 2.2091125e-05 0.00017479226)
(0.0004257299 8.3194693e-06 0.00021942408)
(1.386908e-05 7.7127977e-06 1.5473812e-05)
(1.0761626e-05 1.8831212e-05 2.9023567e-05)
(0.00049826167 -7.2564691e-06 0.00025793072)
(0.00053189105 3.8186988e-05 0.00015559104)
(0.00065397904 -1.9328423e-05 0.00018875006)
(-6.7637601e-05 2.6890758e-05 -1.7158343e-05)
(-0.00010244255 3.4870422e-05 -5.0489602e-05)
(0.00045897216 -2.5910399e-05 0.0001384682)
(-8.8510962e-05 2.0749976e-05 -3.3505866e-05)
(0.00050291104 3.4112653e-05 0.00014900984)
(0.00054888381 1.7817631e-05 0.00021313661)
(-2.4123046e-05 7.5279857e-05 -3.7418404e-05)
(-3.7169499e-05 1.7491426e-05 -3.6175844e-06)
(0.00038366962 -2.6014342e-05 0.00012201831)
(0.00058888157 5.4288768e-05 0.00014824572)
(-5.6763172e-05 1.453663e-05 -1.9958854e-05)
(-6.0529223e-05 4.679194e-05 -2.8994058e-05)
(-0.00011291496 2.1867851e-05 -4.966749e-05)
(0.00044741159 4.3288127e-06 0.00017959503)
(0.00052682919 -5.2343999e-05 0.00013550021)
(-2.9811645e-05 1.0106799e-05 9.713134e-06)
(-7.6287264e-05 7.5176557e-06 -2.6389623e-05)
(-0.00013998569 3.5240747e-05 -7.2575759e-05)
(0.00055138463 2.0532289e-05 0.00021311478)
(-9.0926662e-05 1.6042298e-05 -4.7703623e-05)
(-9.4750389e-05 6.0394315e-06 -3.8753272e-05)
(-5.5294258e-05 8.6321011e-06 -1.9611977e-05)
(-0.00013357201 3.1248848e-05 -7.0182698e-05)
(-7.6606839e-05 9.9444048e-07 -2.3983191e-05)
(0.00049504982 -7.957078e-06 0.00015051921)
(-0.00011204163 9.0443367e-06 -4.8850429e-05)
(0.00063565418 2.7430737e-06 0.00019305264)
(-6.8629196e-06 1.7472795e-05 1.9504123e-05)
(-0.00011299351 -7.2417959e-07 -4.7881466e-05)
(-0.00012101508 5.4273816e-06 -5.4449274e-05)
(-4.1193649e-05 2.7380498e-05 -6.5073548e-05)
(-5.0406036e-05 1.9096962e-05 -6.2735445e-05)
(-0.00014477905 2.0713232e-05 -7.017588e-05)
(0.00065016668 -3.2882897e-05 0.00018286924)
(-2.3778771e-05 7.6030424e-05 -6.8666462e-05)
(0.00058824983 8.9518877e-06 0.00018636345)
(0.0004889105 3.6472323e-05 0.00013568587)
(8.9669482e-05 -4.0529751e-06 4.9791203e-05)
(-0.00016077876 1.4049066e-05 -7.8479165e-05)
(8.3595894e-05 -7.1579856e-06 3.6411457e-05)
(0.00060130475 1.4074498e-05 0.00017988655)
(0.00044663946 -1.9358369e-05 0.00016711518)
(0.0005630134 1.7832577e-05 0.00020049453)
(1.8735691e-05 8.2785941e-06 1.7629922e-05)
(2.1957947e-05 1.072293e-05 1.2070701e-05)
(0.00056909513 7.3689057e-06 0.0001972405)
(0.00055027982 -2.9703872e-05 0.00016817698)
(-3.1038396e-05 5.4137543e-05 -9.3553415e-05)
(-3.3188384e-05 6.8506575e-05 -8.8396741e-05)
(-1.7960192e-05 5.484975e-05 -6.6046099e-05)
(-0.00013809693 4.8642516e-05 -7.9262648e-05)
(0.00047820329 1.0113273e-05 0.00014317856)
(-9.0085376e-05 -1.2108021e-06 -3.457809e-05)
(-0.00012713038 -3.7030069e-06 -6.2187243e-05)
(0.00046633071 -4.9191943e-06 0.00019017681)
(0.00069188541 0.00010864453 0.00025527104)
(0.00048139568 -1.6313282e-07 0.00014001149)
(0.00053982955 2.1470528e-06 0.00014676373)
(0.00054564973 5.3245724e-06 0.00016714657)
(0.00048371008 7.1810184e-06 0.00020459137)
(0.00054488018 -4.1149167e-06 0.00014563978)
(-0.00015907041 -2.1698651e-06 -8.3606962e-05)
(0.00060246342 4.599696e-06 0.00017163716)
(-0.00016262667 7.6332872e-06 -8.0825735e-05)
(0.00059430883 -1.3009768e-05 0.00017422502)
(-2.7789993e-05 8.7239572e-05 -3.8032576e-05)
(-0.00011641702 -3.6595044e-06 -5.5466389e-05)
(-3.602004e-05 4.8850753e-05 -9.1509994e-05)
(-0.00014770174 -9.3729434e-06 -7.0020172e-05)
(-4.6131046e-05 5.3061808e-05 -2.0487541e-05)
(0.00054809166 -1.7548242e-05 0.00014678607)
(0.0004439907 9.7964403e-06 0.00014013152)
(0.00061216768 9.9299568e-06 0.00018012099)
(3.3137206e-05 2.7795902e-06 6.2603958e-06)
(0.000558524 -9.0409922e-06 0.00014527014)
(-0.0001305674 5.2893816e-05 -7.4671667e-05)
(-4.776461e-05 3.7980747e-06 -6.5170968e-05)
(5.5385213e-05 1.1792666e-05 4.0594286e-05)
(0.00055776149 -1.3148523e-05 0.00019156221)
(-0.0001700068 -4.5172212e-07 -8.1361301e-05)
(-3.2071475e-05 5.3105448e-05 -7.5214788e-05)
(0.00070625874 0.00011509389 0.00027140409)
(-2.1939543e-05 7.7287833e-05 -9.1676518e-05)
(-0.00015224762 2.5705284e-05 -7.5833497e-05)
(-2.7885628e-05 7.9997918e-05 -6.7616464e-05)
(-0.00017661175 2.5657634e-05 -8.9048411e-05)
(-0.00010408124 -6.348391e-06 -5.5877653e-05)
(0.00045137212 -2.5265272e-05 0.00016411442)
(6.2527883e-05 5.3670288e-06 3.6995756e-05)
(0.00069125652 -9.2286463e-05 0.00034721312)
(0.00036662464 2.459271e-05 0.00018282541)
(0.00061854783 -4.123081e-05 0.00037116778)
(0.00075911539 -9.2915849e-05 0.00039215791)
(0.00058667906 3.4532456e-05 0.00035785044)
(0.00072124696 0.00011294017 0.00024626252)
(0.00017645962 6.5855581e-07 9.8902219e-05)
(-4.7156357e-05 4.8212293e-05 -8.3815458e-05)
(-4.1324505e-06 -1.5171663e-05 1.0852621e-06)
(0.00016972733 -5.2194622e-06 8.5868027e-05)
(2.7492871e-05 1.5830711e-05 3.0539257e-05)
(0.00056831759 4.2278441e-05 0.00014706196)
(5.750802e-05 1.1240478e-05 3.1240541e-05)
(-0.00017243118 2.2697971e-07 -8.5178016e-05)
(4.322617e-05 2.2637372e-05 2.9765375e-05)
(0.00083366435 -7.9772568e-05 0.00017054939)
(-4.5639263e-05 1.836551e-05 -7.6407134e-05)
(2.5328199e-05 1.5351817e-05 2.4997644e-05)
(-3.3023187e-05 5.4336568e-05 -7.8307945e-05)
(-0.00015144315 4.4220345e-05 -8.5329588e-05)
(-4.4110573e-05 4.797482e-05 -9.2035958e-05)
(0.00048216 -2.9755947e-05 0.00017103793)
(-4.0146003e-05 3.2278092e-05 -0.00010204452)
(-1.5882554e-05 6.9491114e-05 -9.737718e-05)
(-0.00019302967 2.182348e-05 -9.2805862e-05)
(-0.00018034618 1.8380896e-05 -9.008441e-05)
(0.00039586257 5.4633453e-06 0.00016595335)
(1.4780372e-05 1.5252396e-05 1.3973699e-05)
(-5.2292309e-05 2.102984e-07 -8.483607e-05)
(0.00039971871 1.5304648e-05 0.00018202156)
(-1.785878e-05 8.1551284e-05 -7.5652597e-05)
(0.0004494147 5.0632057e-06 0.00012726297)
(-1.1685924e-05 8.5720128e-05 -6.4589855e-05)
(-1.8948363e-05 8.5661548e-05 -4.721463e-05)
(-0.00018368631 -7.2246158e-06 -9.8663867e-05)
(0.00040760463 -3.4656053e-06 0.00015360878)
(-2.1662403e-05 7.826991e-05 -3.4473095e-05)
(4.2810701e-05 -1.5212636e-06 2.3616089e-05)
(-5.2692799e-05 6.3354279e-05 -3.0242312e-05)
(0.00070475099 -6.1367012e-05 0.00017116203)
(0.00038707751 2.8809236e-05 0.00011790083)
(-2.3654348e-05 7.1761966e-05 -8.4060492e-05)
(-4.8626313e-05 2.6221034e-05 -8.8952634e-05)
(-8.5048849e-05 5.3166988e-05 -6.0576621e-05)
(-0.00013217351 5.4579003e-05 -7.2790077e-05)
(0.00069431511 8.88695e-05 0.00035689456)
(-2.0164909e-05 8.6410733e-05 -0.00010282457)
(2.6288759e-05 1.3917111e-05 2.2134954e-05)
(-0.00017491951 -1.3027417e-05 -8.76111e-05)
(-5.5469511e-05 -7.9472657e-07 -7.981657e-06)
(-0.0001680952 3.9715666e-05 -8.440031e-05)
(0.00072771385 -0.00011476783 0.00028021237)
(-0.00012456518 -1.2556109e-05 -6.0585056e-05)
(1.329068e-05 1.623188e-05 2.4156242e-05)
(-0.00017344191 4.2531245e-05 -8.659543e-05)
(0.00058205184 -2.1310841e-05 0.00035137497)
(-7.8691074e-05 6.3127925e-05 -5.2418012e-05)
(0.0005893647 2.336048e-05 0.00035570914)
(-1.9746995e-05 4.1608113e-05 -8.6540579e-05)
(-0.0002078613 -2.4150895e-06 -0.00010381421)
(-0.00016639927 3.7828693e-05 -8.6915269e-05)
(3.8485065e-05 8.8830653e-06 2.2694736e-05)
(-0.00019184527 1.4889381e-05 -9.2774876e-05)
(-3.409669e-05 -2.0061719e-05 -3.4300579e-05)
(-0.00017520095 4.5621065e-05 -8.5403709e-05)
(-5.0048363e-05 -2.2816211e-05 -3.1799458e-05)
(0.00069446246 9.6231895e-05 0.00035077854)
(-3.2841028e-05 1.3009697e-05 1.3723434e-05)
(7.6510351e-06 6.306375e-06 2.5382273e-05)
(-9.0677361e-05 -9.6147695e-06 -3.7440803e-05)
(-0.00019429512 -1.6723449e-05 -0.00010418692)
(-0.00020088271 1.3650371e-05 -0.00010060898)
(-0.00021859663 -5.1365319e-06 -0.00011092772)
(-0.00020870804 1.3494319e-05 -0.00010042731)
(6.4600748e-05 9.6902273e-06 3.8154953e-05)
(-0.00019542237 -1.9781472e-05 -9.7930672e-05)
(0.00048846063 -2.4789975e-05 0.0001640853)
(0.00055062836 -2.6166306e-05 0.00012109831)
(0.00067733843 5.8614564e-05 0.0001503828)
(-0.00018875762 1.1762035e-06 -9.4027985e-05)
(0.0004340648 -1.9739295e-05 0.00014493388)
(0.00052088444 2.5204846e-05 0.00014666028)
(2.2325485e-05 -4.077349e-05 3.3948689e-05)
(-5.4190606e-05 -6.0696124e-06 -2.9143257e-05)
(0.0003909946 -4.3992512e-05 0.00015833866)
(4.9616081e-05 1.5724563e-05 2.2644248e-05)
(0.00049545568 3.8283129e-05 0.00019463505)
(-0.00023155815 -8.4546602e-06 -0.0001094168)
(0.00079953752 -0.00011217065 0.0003716002)
(-0.00020952271 -7.1765586e-06 -9.9547981e-05)
(7.9062176e-05 5.6537195e-06 6.8489136e-05)
(0.00033675045 2.0830743e-05 0.00016032945)
(-0.00016396418 -1.9442205e-05 -8.8153242e-05)
(-1.2670098e-05 8.8594698e-05 -6.1260028e-05)
(-0.00013862236 2.9878525e-05 -6.6769696e-05)
(6.2553979e-05 2.7784757e-06 3.4309969e-05)
(0.00016152817 4.3842248e-06 8.6306655e-05)
(0.00018336989 1.3469745e-05 0.00010539938)
(-0.00023121529 -1.6563289e-05 -0.00010804914)
(7.2372948e-05 5.0263909e-06 3.7318528e-05)
(0.00056993346 2.5564068e-05 0.0001490601)
(-3.463744e-05 8.6810195e-05 -2.6684335e-05)
(0.00070982663 -0.0001050845 0.00025775499)
(-0.00013707414 3.0209373e-05 -6.9800455e-05)
(-0.00012403666 -1.5387626e-05 -6.9503409e-05)
(-1.1926785e-05 8.7326446e-05 -0.00010282772)
(-0.00023669881 -2.2472267e-05 -0.00012051064)
(0.00064884182 -9.7091675e-05 0.00026542612)
(0.00074169448 -3.1995729e-05 0.00021304818)
(-5.2109824e-05 6.0122365e-05 -3.0463473e-05)
(-0.00010402862 -1.0077658e-05 -5.6139203e-05)
(-0.00019140681 1.9206522e-05 -8.8820209e-05)
(-0.00015980436 -2.2749745e-05 -8.2973489e-05)
(-0.0001580074 -2.1927881e-05 -7.7639542e-05)
(-0.0002588202 -3.1875143e-05 -0.00012553313)
(0.00069499486 5.5023828e-05 0.00040673715)
(-0.00023321333 -1.1270983e-05 -0.00010412163)
(0.00068281328 -5.3291788e-05 0.00039749191)
(-0.00018569534 -2.7032772e-05 -0.00010727173)
(0.00053730537 -2.040018e-05 0.00014686819)
(-0.00021824129 -3.6334957e-05 -0.00010911616)
(-0.00020110809 2.1217317e-06 -0.00010150941)
(0.0007154797 6.6020802e-05 0.00040876625)
(-3.0400089e-05 -4.8609819e-05 7.3985407e-06)
(0.00056410812 3.8451527e-06 0.00015953163)
(5.5846624e-05 8.2587335e-06 3.035874e-05)
(-0.00022522887 -3.4131447e-05 -0.00010722175)
(-0.00020446087 -2.8522033e-05 -0.0001025493)
(-0.00022112629 -3.9765902e-05 -0.00012710816)
(0.00049201951 -3.9058794e-05 0.00016598483)
(3.281966e-05 -2.0139631e-05 6.912111e-05)
(-0.00023433577 -4.6689642e-05 -0.00013059193)
(4.4744432e-05 8.8986901e-06 2.8671838e-05)
(-0.00018936846 -2.7695201e-05 -0.00010273103)
(-7.8349976e-06 0.0001167462 -0.00010876511)
(0.00053995063 4.1772535e-05 0.0001669521)
(4.8539748e-05 8.8969241e-06 3.6694404e-05)
(5.4223562e-05 4.2587034e-06 2.750336e-05)
(-5.1653044e-05 6.4549575e-05 -3.488607e-05)
(-7.0118294e-06 8.5491363e-05 -4.8036916e-05)
(0.00056310245 2.3222466e-05 0.00015111605)
(9.002089e-05 2.4427131e-06 9.5459188e-05)
(0.00074584435 -6.9593914e-05 0.00042904417)
(-0.00019617248 -3.8481835e-05 -0.00010993478)
(-0.00019337 -3.3054146e-05 -0.00010629436)
(4.7731457e-05 8.0742847e-06 2.6594029e-05)
(0.00057253075 2.5760007e-05 0.00014660881)
(3.9727864e-05 1.2751835e-05 2.8595691e-05)
(0.00069986693 9.1726768e-05 0.00021188205)
(0.00046503195 3.9440058e-05 0.00012316621)
(0.00060119829 4.7131359e-06 0.00014585671)
(-0.00012448057 -2.3343288e-05 -7.4450979e-05)
(-0.00010921277 -1.447118e-05 -6.4959856e-05)
(0.00060610109 3.6171511e-06 0.00019472198)
(-0.00017092711 -3.8561566e-05 -0.00010543749)
(0.0004912087 -1.9422752e-06 0.00019131193)
(0.00066530366 -3.4661607e-05 0.00013563626)
(0.00075213855 -2.6529264e-05 0.0001995653)
(-0.00014031457 -3.3529095e-05 -9.5734793e-05)
(-0.00014016309 -3.610316e-05 -8.7477588e-05)
(-6.5844074e-05 -6.5131175e-06 -2.3121579e-05)
(-1.9372868e-05 -4.0172485e-06 2.0511081e-06)
(0.00057348109 -9.4174064e-06 0.00013983028)
(0.00076447633 -9.1999309e-05 0.00019554911)
(0.00076139423 -9.7843304e-05 0.00020989765)
(0.00073588015 8.1406325e-05 0.00021329256)
(4.9835636e-05 8.8267731e-06 3.5388078e-05)
(0.0007917806 7.8398403e-05 0.00022507643)
(0.00036855735 -8.8931987e-06 0.00016601827)
(6.4415246e-05 1.0106244e-05 2.5404357e-05)
(0.00042814172 1.0988213e-06 0.00019844001)
(6.5224113e-05 4.4693122e-06 3.5934353e-05)
(7.1821833e-05 5.3194747e-06 2.9177321e-05)
(6.2646096e-05 6.1514427e-06 3.121357e-05)
(7.6218168e-05 3.146585e-06 3.5977366e-05)
(7.9584354e-05 3.1669139e-06 3.3986672e-05)
(7.9514321e-05 3.0494436e-06 3.8473264e-05)
(8.043939e-05 9.9441152e-07 3.5619659e-05)
(6.8528717e-05 3.9829501e-07 4.0371907e-05)
(8.6017937e-05 -4.9458561e-07 3.7868132e-05)
(6.7998491e-05 8.6034241e-06 4.2418042e-05)
(-7.234059e-05 -1.332781e-05 -3.1638705e-05)
(5.9253512e-05 6.1504478e-06 3.9194836e-05)
(0.00010687525 -2.7188737e-06 5.2458094e-05)
(8.519945e-05 1.8144281e-06 3.8550675e-05)
(7.6572015e-05 2.7405789e-06 4.3616356e-05)
(6.5797971e-05 1.0345895e-05 4.1429024e-05)
(0.00060257428 6.5936462e-05 0.000341661)
(0.00054969103 -4.0717483e-05 0.00017238065)
(7.7514614e-05 -1.6198724e-06 5.1768985e-05)
(0.000579536 -2.5798954e-05 0.00017230381)
(0.00013397592 -6.4720534e-06 6.5424136e-05)
(0.00074321564 -8.1490916e-05 0.00040757591)
(-5.802384e-06 -1.3701445e-05 2.969887e-05)
(0.00068686676 6.2960173e-05 0.00016762279)
(0.00014311132 -5.3682309e-06 7.3897234e-05)
(0.00056818842 -3.736652e-05 0.00016812068)
(0.00069394648 6.368352e-05 0.00014354593)
(0.00050651468 4.5502139e-05 0.00018289859)
(-4.7755464e-05 -1.0397527e-05 -1.4660081e-05)
(0.00037657748 -3.9311083e-05 0.0001424889)
(6.7479674e-05 -1.8867259e-06 5.0694849e-05)
(0.00032557193 -3.8864727e-05 0.00012219995)
(8.9676633e-05 -5.9572573e-06 4.6046419e-05)
(0.00066122961 -3.0659514e-05 0.00015430936)
(0.0005691601 4.1935452e-05 0.00017471074)
(8.7476596e-05 -4.7923618e-06 4.1709966e-05)
(0.00060380634 -1.007591e-06 0.00016266014)
(0.00053232917 4.7729303e-05 0.0001753184)
(6.8249264e-05 -4.3256862e-06 5.3117204e-05)
(8.3267884e-05 -3.2580787e-06 4.7468914e-05)
(5.3569383e-05 -4.3856483e-06 4.591265e-05)
(7.8444758e-05 -5.8071673e-06 4.7269394e-05)
(0.00067378615 2.5440199e-05 0.00014328904)
(0.00011221416 -2.8156063e-06 5.0722095e-05)
(0.00060403034 -4.8522812e-06 0.00013610521)
(0.00057970198 2.3849889e-05 0.00013235471)
(0.0005674428 1.3686182e-05 0.00015135371)
(9.8332794e-05 -4.8790951e-06 4.9225091e-05)
(3.8977459e-05 1.6547361e-06 4.3930174e-05)
(7.5258766e-05 -6.9097742e-06 4.8898047e-05)
(0.00013111821 1.080456e-05 4.4751416e-05)
(0.00072422729 -9.5071127e-05 0.00022647093)
(5.4379331e-05 3.0452137e-06 4.4547273e-05)
(-3.7156909e-05 -1.6202671e-05 -4.664221e-06)
(8.5752145e-05 -8.1515804e-06 4.8231712e-05)
(0.00013330705 -5.8888893e-06 6.6153659e-05)
(0.00038451937 4.2792962e-06 0.00018784361)
(0.000668308 -1.8914431e-05 0.00015719079)
(5.714092e-05 -5.5542056e-06 4.9377393e-05)
(0.00030700342 -3.9134195e-05 0.00011617491)
(0.00026596635 8.9143916e-06 0.00012131607)
(3.5859372e-05 -1.0855213e-06 2.8088415e-05)
(0.00041780312 -3.0537656e-06 0.00021640185)
(0.00067194478 -1.5709714e-05 0.00014794825)
(0.00058264271 -8.79201e-06 0.00013196724)
(9.1935555e-05 -3.0926585e-06 4.2232038e-05)
(8.1613263e-05 -8.2322618e-06 4.7065687e-05)
(9.5933499e-05 -5.3643149e-06 4.2961517e-05)
(0.00047663442 2.8784533e-05 0.00012529543)
(9.6260737e-05 -1.0981995e-05 5.0006236e-05)
(9.3541545e-05 -5.2203247e-06 4.8107453e-05)
(0.00037681042 2.3457715e-05 0.00016852768)
(0.00068580407 -2.7274268e-05 0.00014855819)
(0.00010755845 -1.0883968e-05 5.3413545e-05)
(7.53871e-05 -9.6972486e-06 4.7342603e-05)
(-0.0001708038 1.024228e-05 -8.7389199e-05)
(0.0001019637 -1.2753804e-05 5.3834994e-05)
(8.8403968e-05 -1.1303435e-05 5.1238306e-05)
(0.00010377888 -1.1226101e-05 5.3047938e-05)
(0.00010345729 -6.0920667e-06 4.8773019e-05)
(-3.7851944e-05 -2.477174e-05 2.6261851e-05)
(0.00076347282 0.00010546409 0.00034293457)
(0.00073151331 -0.00010636369 0.00031233485)
(2.2475758e-05 -1.322651e-06 1.9762452e-05)
(0.00010580946 1.5742199e-05 8.3801358e-05)
(9.8176247e-05 -1.2980379e-05 5.2972391e-05)
(8.4538366e-05 -1.5025828e-05 5.5016967e-05)
(9.4741025e-05 -1.6217842e-05 5.2388575e-05)
(7.2829799e-05 -2.0214133e-05 4.6921997e-05)
(9.2342714e-05 -1.2588428e-05 4.8992091e-05)
(0.00062479515 -5.5922521e-05 0.00014976562)
(9.3078212e-05 -2.2337543e-05 4.544738e-05)
(0.00050576527 -4.4579684e-05 0.00017074241)
(0.00067688595 6.0910671e-05 0.00016311383)
(8.8565885e-05 4.5550934e-06 3.7496096e-05)
(0.00085588888 0.00012910634 0.00035450309)
(-0.00010436064 -2.3455837e-05 -5.8169966e-05)
(-0.00022829777 -3.9083264e-05 -0.00011119673)
(-0.00011246142 -2.564868e-05 -6.7889034e-05)
(-0.00018286846 -4.0919727e-05 -9.9201062e-05)
(-0.00022210199 -1.0885558e-05 -8.9075584e-05)
(0.00011265881 -3.8589015e-06 5.0761561e-05)
(0.00037962152 2.5320079e-05 0.00016294347)
(9.3373066e-05 -2.0820097e-05 3.9347788e-05)
(0.00016223561 -2.3014132e-05 7.3463427e-05)
(-0.00017407704 -4.3505767e-05 -0.00010438015)
(0.0003770721 -3.4817027e-05 0.00012504603)
(0.00011087124 -1.2519945e-05 4.6247139e-05)
(0.00010831511 -9.7061637e-06 4.6007712e-05)
(0.00011190032 -1.6780843e-05 5.0273449e-05)
(0.00011034856 -2.2668136e-05 4.771762e-05)
(0.00070186146 4.2757405e-05 0.00041614385)
(0.00066259184 -4.6709703e-05 0.00039278931)
(-8.1761698e-05 -1.6879209e-05 -4.865595e-05)