/*--------------------------------*- C++ -*----------------------------------*\
  =========                 |
  \\      /  F ield         | OpenFOAM: The Open Source CFD Toolbox
   \\    /   O peration     | Website:  https://openfoam.org
    \\  /    A nd           | Version:  11
     \\/     M anipulation  |
\*---------------------------------------------------------------------------*/
FoamFile
{
    format      ascii;
    class       volVectorField;
    location    "10000";
    object      wallShearStress;
}
// * * * * * * * * * * * * * * * * * * * * * * * * * * * * * * * * * * * * * //

dimensions      [0 2 -2 0 0 0 0];

internalField   uniform (0 0 0);

boundaryField
{
    wall-fluid_domain
    {
        type            calculated;
        value           nonuniform List<vector> 
50990
(
(0.00054467762 -5.4944616e-05 0.00014536214)
(0.00054880227 -5.9618348e-05 0.00016212335)
(0.00022065934 -1.0991733e-05 9.9864298e-05)
(0.00047485235 -5.7395801e-06 0.00011673711)
(0.0005356949 -4.4969316e-05 0.00016629035)
(0.00063277959 2.2227828e-06 0.00013487193)
(0.00053630313 -5.6834295e-05 0.00014421077)
(0.00052058523 -4.3249896e-05 0.00012560829)
(0.00058178288 -1.0963092e-05 0.00014421319)
(0.0007124088 -3.788136e-05 0.00016409752)
(0.00050530192 -4.6143659e-05 0.00012458747)
(0.00068765876 -4.5911113e-05 0.00015795226)
(0.00018288837 -6.2533216e-06 7.9674534e-05)
(0.00054432181 -5.0298246e-05 0.00015763448)
(0.00065345555 -3.9329283e-05 0.00014858116)
(0.00069220839 -1.572339e-07 0.00012856186)
(0.00070525359 -2.8057619e-05 0.00016069689)
(0.00052740561 -4.5441697e-05 0.00016542576)
(0.00059594434 1.3306249e-05 0.00011092983)
(0.00052875333 1.7792907e-05 0.00010348869)
(0.00045111328 2.8179556e-05 0.00014423664)
(0.00063350543 1.0826916e-05 0.00013814581)
(0.00070190474 -1.8354247e-05 0.00016381471)
(0.00069723344 -1.4492561e-05 0.00014962196)
(0.0004828099 -5.661399e-05 0.00016016862)
(0.00066864315 2.8529484e-05 0.00015107372)
(0.00046708737 5.4595627e-05 0.00014848093)
(0.00062944778 1.129727e-05 0.000135463)
(0.00037271377 -4.1697615e-05 0.00015609405)
(0.00045791357 5.2179371e-05 0.00016044929)
(0.00064353931 -1.7111799e-05 0.00012884637)
(0.00070771398 6.4167028e-05 0.00019295408)
(0.00069806489 -6.9828733e-07 0.00015241973)
(0.00073536325 3.5795735e-05 0.00016658207)
(-0.00017701616 7.7249427e-05 -8.3574007e-05)
(0.00073357872 5.3973376e-05 0.00017815502)
(0.00063232912 1.4171598e-05 0.0001359297)
(0.0006824048 -9.408661e-06 0.00012186874)
(0.00064712086 2.5386915e-05 0.00015179402)
(0.00072883522 8.0230865e-05 0.00021685057)
(0.00056080326 6.5998254e-06 0.00011152123)
(0.00068789988 -6.0099318e-05 0.0001702735)
(0.00027436221 -1.2845506e-05 9.9495247e-05)
(0.00018862692 4.8427571e-06 6.2995122e-05)
(0.00050396666 9.5926745e-05 0.00010162377)
(0.00063426386 -2.2083103e-05 0.00012996656)
(0.00062338159 4.6045704e-05 0.00016829814)
(0.00064616152 -4.0364631e-05 0.00014813837)
(0.00051900832 -5.869487e-06 9.929935e-05)
(0.00053852026 -1.3570209e-05 0.00011218684)
(0.00037513968 -4.2260724e-05 0.0001570898)
(0.00045432441 -6.477257e-05 0.00016163887)
(2.2477404e-05 2.1221814e-05 1.4224211e-05)
(-1.2965069e-06 2.206725e-05 -3.3544268e-05)
(0.00041634224 -4.9952266e-05 0.00015354614)
(-0.00014982816 5.3886614e-05 -6.4015031e-05)
(0.00060327788 -3.8789694e-05 0.00014088046)
(0.00054175825 -6.1491598e-05 0.00015925481)
(0.00034058895 -2.4531991e-05 0.00015387042)
(0.00047576711 2.7805106e-05 0.00014774637)
(0.00034041158 -3.0474123e-05 0.00015299417)
(0.00027557265 -1.6229453e-05 0.00010154779)
(0.00027458347 -2.0104462e-05 0.00011187109)
(0.00037600286 -4.4037434e-05 0.00015726626)
(0.00063684102 -6.8016267e-05 0.00015475565)
(0.00015768422 -5.596094e-06 3.869325e-05)
(0.00065834204 -5.3284694e-05 0.00015104762)
(0.00021337285 -1.0146764e-05 8.6751875e-05)
(0.00064392605 -6.0845817e-05 0.00036939186)
(0.00051456426 -5.5388568e-05 0.00013966248)
(0.00029615305 -2.5947854e-05 0.00012782941)
(0.00021608247 -1.3367365e-05 6.4119169e-05)
(0.00016161311 -6.2206055e-06 3.509879e-05)
(0.00059003219 -3.0089892e-05 0.0001348122)
(0.00018676617 -8.8047141e-06 6.3460304e-05)
(0.00033570356 -2.2246393e-05 0.00013438877)
(0.00020705841 -1.6050686e-05 6.0402865e-05)
(0.00015976626 -2.1924478e-05 2.8155843e-05)
(0.0002022156 -3.0930774e-05 5.1284909e-05)
(0.00022278269 -1.6703051e-05 7.3074165e-05)
(0.00029447003 -2.2486021e-05 0.0001253172)
(0.00018667029 -3.0129447e-05 4.3496316e-05)
(0.00020508052 -3.4454826e-05 5.7542996e-05)
(0.00034786901 -3.1521773e-05 0.00013888172)
(0.0002141249 -3.288431e-05 6.2796258e-05)
(0.00023851675 -2.2901633e-05 8.4393088e-05)
(0.00026477298 -1.9475967e-05 0.00010712884)
(0.00037562696 -3.9756003e-05 0.00014230225)
(0.00020619494 -3.3308554e-05 6.2810162e-05)
(0.0002111342 -5.0285624e-05 6.2413526e-05)
(0.00023616288 -2.6789952e-05 9.0148722e-05)
(0.00020038863 -3.1026891e-05 6.5160569e-05)
(0.00020428465 -4.9864175e-05 6.2586384e-05)
(0.00020922074 -5.3509451e-05 6.7702397e-05)
(0.00064821385 -6.4101139e-05 0.00036775658)
(0.00060183142 -5.4793447e-05 0.0003385772)
(0.00044074968 -4.5211328e-05 0.00026080973)
(0.00054238866 -6.5667359e-05 0.00015930341)
(0.00019276983 -4.4240149e-05 4.5115234e-05)
(0.0006485049 -6.0522539e-05 0.00015000902)
(0.00050188473 -6.4500066e-05 0.00013155533)
(0.00056022261 -3.2496056e-05 0.00012696912)
(0.0001823359 -4.5705084e-05 5.8404409e-05)
(0.00049210984 -6.4105867e-05 0.00013308716)
(0.00045400419 5.2349439e-05 0.00015250488)
(0.00020308008 -5.4913027e-05 7.2138073e-05)
(0.00018155633 -4.8073126e-05 6.6718265e-05)
(0.00020029163 -5.8515795e-05 7.5483935e-05)
(0.00017495409 -5.1639971e-05 5.9980266e-05)
(0.00058658772 -2.136714e-05 0.00013262751)
(0.00053802962 -6.1470221e-05 0.00012602209)
(0.00060827505 -5.8789363e-05 0.00013416016)
(0.00063753739 -4.9570311e-05 0.00014195805)
(0.00053949717 -7.6493778e-05 0.0001450486)
(0.00053219948 -7.3187341e-05 0.00013100639)
(0.00063189745 -4.2901678e-05 0.00014152824)
(0.00055722179 -6.2236078e-05 0.00012917133)
(0.00052875452 -7.1894583e-05 0.00012946582)
(0.00057636057 -4.422366e-05 0.00012542419)
(0.00056010895 -5.0872811e-05 0.00011817769)
(0.00054922876 -6.5208371e-05 0.00012290035)
(0.00052002389 -7.6516711e-05 0.00013732286)
(0.00038774105 -5.8297355e-05 9.9297886e-05)
(0.0004725841 -7.8232326e-05 0.00012781459)
(0.00061301964 -9.9787787e-05 0.0001554779)
(0.0005849638 -8.4118481e-05 0.00012948032)
(0.00055976046 -5.8828411e-05 0.00011562241)
(0.00062344423 -4.5452117e-05 0.00013122288)
(0.00061907771 -9.7732701e-05 0.00014749313)
(0.00058892704 -8.1061403e-05 0.00012803568)
(0.00062126534 -2.9585121e-05 0.0001334431)
(0.0005616487 -5.0338853e-05 0.00011486475)
(0.00062757127 -2.8819466e-05 0.00013064199)
(0.00061755419 -4.2542999e-05 0.00013026487)
(0.00066244093 2.1345849e-05 0.00014184178)
(0.0005758431 -3.0828402e-05 0.00011376737)
(0.00058609063 -7.9517082e-05 0.00012382413)
(0.00062440213 -2.0594552e-05 0.00013393683)
(0.00062735208 -6.8261202e-05 0.00012232845)
(0.00059081301 -7.0896623e-05 0.0001146374)
(0.00047210506 -8.352894e-05 0.0001136117)
(0.00061263948 -4.3159123e-05 0.00011885668)
(0.00062787146 -5.5608646e-05 0.00012047596)
(0.00061854199 -1.2248432e-05 0.00012800397)
(0.00057771888 -2.490054e-05 0.00012193562)
(0.00055888745 -9.9768736e-05 0.00013062033)
(0.00065015674 4.7208948e-05 0.00016190687)
(0.00048138774 6.8369844e-05 8.8632132e-05)
(0.000443378 -6.3470356e-05 8.8438788e-05)
(0.00054628267 5.03471e-05 0.00010484337)
(0.00061763013 -6.3262666e-05 0.00011741207)
(0.00061149165 -3.2028104e-05 0.00011807358)
(0.00042068807 6.4728754e-05 7.268475e-05)
(0.00058614248 -7.1682176e-05 0.00011265877)
(0.00063144005 -1.6354153e-05 0.00012667951)
(0.00044906524 2.640281e-05 8.6208872e-05)
(0.00051151232 -4.009103e-05 9.2328402e-05)
(0.00066731528 -2.8764e-05 0.00012922268)
(0.00053900751 -3.2082778e-05 0.00010282109)
(0.00064571011 -2.0138233e-06 0.00013775109)
(0.00049981051 -7.4583543e-05 9.8756683e-05)
(0.00055394469 -5.5835368e-05 0.00010446956)
(0.00054576834 -7.4155034e-05 9.7330214e-05)
(0.00066105462 -6.1542341e-06 0.00013715305)
(0.00054392068 -3.2253748e-05 0.0001055189)
(0.0006477167 -6.5360678e-05 0.00012369243)
(0.00064551483 -4.990903e-05 0.00012216634)
(0.00067944306 6.9891958e-06 0.00014614395)
(0.00067358892 -2.0654825e-05 0.00013106325)
(0.00066613871 -1.9931176e-05 0.00012925189)
(0.00065071566 3.8886338e-06 0.00013996983)
(0.00072909127 5.9525153e-05 0.00021139152)
(0.00063906045 -5.8143311e-05 0.00012027335)
(0.0007148248 -1.0177112e-05 0.00015940385)
(0.00058887712 -7.5708301e-07 0.00012703294)
(0.00062322108 -3.7775316e-05 0.00011908084)
(0.00067827206 -9.5643675e-05 0.00019796765)
(0.00049557872 -4.3757832e-05 9.2266667e-05)
(0.00061490137 -3.563769e-05 0.00011896484)
(0.0005756087 -8.4217184e-06 0.00011421137)
(0.00062551398 -2.3272884e-05 0.00012408015)
(0.0004892149 -4.0299272e-05 8.7919141e-05)
(0.00059734866 1.0997298e-05 0.00013030339)
(0.00058230994 -6.4601267e-05 9.5996319e-05)
(0.0005645174 -3.5087239e-05 0.00010647518)
(0.00053289542 -3.7695263e-05 9.6288309e-05)
(0.00067827102 2.4046564e-05 0.00015645756)
(0.00057483462 3.6991729e-07 0.00012322356)
(0.00055522934 -3.1143457e-05 0.00010426596)
(0.00062970582 -8.8001605e-05 0.00017974282)
(0.00055786157 -6.1327569e-06 0.00011260973)
(0.00059996097 1.4297766e-05 0.00014342591)
(0.00056813433 -5.5734953e-05 9.84451e-05)
(0.00057294451 -1.4205972e-05 0.00011584007)
(0.00048681608 9.0558588e-05 9.7624236e-05)
(0.00055896609 2.3966888e-05 0.00013792984)
(0.00052178878 -2.9305552e-05 0.00010237589)
(0.00056253769 -4.3178051e-05 9.4781174e-05)
(0.00072211121 3.1398717e-05 0.00017870986)
(0.00053957224 -4.512417e-06 0.00012232273)
(0.00056653784 -6.7085403e-06 0.00011853213)
(0.00051329648 -2.3636888e-05 9.9212435e-05)
(0.00060206344 -1.3752819e-05 0.00012318709)
(0.0006715599 1.1935323e-05 0.00014986802)
(0.0005581038 -2.1598937e-06 0.000123224)
(0.00056325121 -4.5301076e-05 9.5337134e-05)
(0.00065262244 -5.4709572e-06 0.000140194)
(0.00048821557 -6.4655467e-05 8.3541479e-05)
(0.00069603193 1.786143e-05 0.00016388041)
(0.00070563794 1.8935857e-05 0.00015759769)
(0.00049883803 -2.1576603e-05 9.8534099e-05)
(0.00056020243 -3.2609957e-05 0.00010062139)
(0.00074553871 3.8283153e-05 0.00019224661)
(0.00056280559 2.3975757e-05 0.00014569847)
(0.0005600673 -3.1461494e-05 0.00010867609)
(0.0007069299 -2.1503282e-06 0.0001537599)
(0.00048194984 -3.6147963e-05 8.7293396e-05)
(0.00045577552 -5.9061938e-05 7.6426938e-05)
(0.00070256426 3.1866363e-05 0.0001667127)
(0.00075565731 3.2438302e-05 0.00019654316)
(0.00045442308 -5.0662118e-05 7.6284155e-05)
(0.00046874035 -1.0836282e-05 9.5860002e-05)
(0.0004784187 -2.7571398e-05 9.087602e-05)
(0.00051013649 -2.1056828e-05 0.00010611142)
(0.0004780262 -5.159002e-06 0.0001031627)
(0.00042269312 -5.2972145e-05 7.057002e-05)
(0.00043138817 -3.3482903e-05 8.1768318e-05)
(0.00043301831 -3.9767334e-05 7.475198e-05)
(0.00069115123 3.5483158e-05 0.00016568434)
(0.00067178375 4.1314252e-05 0.00017678118)
(0.00067315232 2.3996603e-05 0.00015586106)
(0.000489532 -2.6821394e-05 9.8903869e-05)
(0.00051034856 -1.4350716e-05 0.00010942174)
(0.0006764813 1.4000752e-05 0.00015545884)
(0.00045556409 -2.760718e-05 9.4710481e-05)
(0.00049070434 -2.2325379e-05 0.00010352392)
(0.00053873345 -6.8038102e-05 9.8790438e-05)
(0.00061771103 -9.2024537e-05 0.00018672451)
(0.00049418871 2.7899442e-05 0.00012593069)
(0.0005204868 -6.3667013e-06 0.00011820191)
(0.0006017937 -8.5848667e-05 0.00010982744)
(0.00045595626 -1.7922815e-05 9.7155138e-05)
(0.00045706375 -1.1592166e-05 0.00010795906)
(0.00067587691 3.3641927e-05 0.00017980201)
(0.0004858625 -7.9826255e-05 9.2441543e-05)
(0.00053301315 -5.5383962e-06 0.00013188458)
(0.00070886138 5.1288374e-05 0.00019511103)
(0.00064212387 6.9748583e-06 0.00014435493)
(0.00058739429 -8.3015285e-05 9.9080946e-05)
(0.00068350038 2.4277882e-05 0.00016665928)
(0.00065225104 2.7707037e-06 0.00014581039)
(0.00067684899 4.7816403e-05 0.00018848231)
(0.00059421715 -2.8999451e-06 0.00012432935)
(0.00059490844 -1.1187592e-05 0.00012377588)
(0.00068113993 4.7464653e-05 0.00016916963)
(0.00066348561 6.025662e-05 0.00017949738)
(0.00068102454 3.4334194e-05 0.0001666236)
(0.00071465645 4.8404646e-05 0.00019706309)
(0.00064760042 4.9060257e-05 0.00018539446)
(0.00067400511 5.3207484e-05 0.00018444844)
(0.00064439953 4.6151656e-05 0.00018298803)
(0.0005921509 7.1725721e-07 0.00012933713)
(0.00062652766 5.3326429e-05 0.00017750337)
(0.00070870866 6.2161733e-05 0.00019825895)
(0.00066809182 3.5100548e-05 0.00017286835)
(0.00053523138 1.0150151e-05 0.00012366942)
(0.0007672498 6.4787712e-05 0.00022801108)
(0.0007205333 5.9822497e-05 0.00020724257)
(0.00047796078 -5.744127e-05 8.0361306e-05)
(0.00057310897 -0.00010356598 0.00026284135)
(0.00049584203 -5.941865e-05 8.4784782e-05)
(0.00076491636 7.8047643e-05 0.00023406853)
(0.00062191014 1.630681e-05 0.00014438532)
(0.00048539291 6.3280246e-05 8.744694e-05)
(0.0004805532 8.2396805e-05 8.3988984e-05)
(0.0006491147 1.8691657e-05 0.00015180119)
(0.00069678652 6.2549535e-05 0.00021008705)
(0.00054109586 9.4615227e-05 0.00026666657)
(0.00062255288 4.499005e-06 0.00014234221)
(0.00076376418 8.0860889e-05 0.00024932209)
(0.00066742893 8.0093615e-05 0.00022783558)
(0.00051784613 5.0836183e-05 9.5430533e-05)
(0.00048592044 -5.3275777e-05 7.9752734e-05)
(0.00049134849 9.2007335e-05 8.4479012e-05)
(0.00069350595 7.1663557e-05 0.00021715475)
(0.00059457156 7.0089372e-05 0.00020567169)
(0.0007051648 4.6709209e-05 0.0001982818)
(0.0003794292 -4.0910529e-05 6.8269815e-05)
(0.00041567507 -4.2180699e-05 8.0989508e-05)
(0.00070321977 7.0135231e-05 0.00023459175)
(0.00064007213 5.8462863e-05 0.00019802519)
(0.00065387956 4.632578e-05 0.00016544642)
(0.00055927897 -3.8626577e-06 0.00013094134)
(0.00048306588 -8.1677218e-05 8.5624662e-05)
(0.00068372638 1.4718918e-05 0.00015960584)
(0.00065834589 5.1896882e-05 0.00018226202)
(0.0007264453 7.4930962e-05 0.00021817678)
(0.00069372209 5.2829177e-05 0.0001948093)
(0.00055088921 7.7697052e-07 0.00012972475)
(0.00065745221 4.1646645e-05 0.00017564316)
(0.00073589588 7.8011233e-05 0.00022938364)
(0.00064507549 6.0915584e-05 0.00019301035)
(0.00050550605 -9.4980789e-05 9.8127016e-05)
(0.0004639829 5.641198e-06 0.00011359548)
(0.00075213679 7.8307642e-05 0.0002445589)
(0.00047821157 -2.4484707e-05 0.00010528574)
(0.00068190174 7.7883987e-05 0.00024258711)
(0.00067139718 3.8544465e-05 0.0001736721)
(0.00065627668 3.1549998e-05 0.00016213389)
(0.00061864676 5.1977023e-05 0.00017391595)
(0.00062390177 1.9637334e-05 0.00015611657)
(0.00068148697 3.8164079e-05 0.00016715898)
(0.00045805741 -1.0203816e-05 0.00011290652)
(0.00066406484 4.7233999e-05 0.00018290847)
(0.00059423622 3.7019558e-06 0.00013660925)
(0.00054072629 -1.1075352e-06 0.000122156)
(0.00059883235 7.0915438e-05 0.00021700462)
(0.00073101532 6.4649342e-05 0.00021965495)
(0.00054559148 2.7183268e-05 0.00014145839)
(0.00044733124 1.7391108e-05 8.6893648e-05)
(0.00054713489 3.111993e-05 0.00014971804)
(0.00069722615 7.7597397e-05 0.00023903734)
(0.00063551207 6.4150578e-05 0.00020319906)
(0.00067150617 7.8951946e-05 0.00022379372)
(0.00069652139 8.8215931e-05 0.00025727861)
(0.00052035241 -7.3706716e-05 7.3633802e-05)
(0.00050422326 -3.4482966e-06 0.00012698833)
(0.00053991137 -9.8360527e-05 8.714801e-05)
(0.00062715778 7.8730551e-05 0.00023901676)
(0.00071724918 7.2474187e-05 0.00024251115)
(0.00062560711 6.7175922e-05 0.00022862663)
(0.0004069723 -3.9390946e-05 7.9222662e-05)
(0.00062072531 1.302704e-05 0.00014551051)
(0.00072183746 2.4329789e-05 0.0001862458)
(0.00047037409 -4.6372148e-05 9.9258055e-05)
(0.00049430111 4.5261353e-05 0.000147884)
(0.00057087099 3.9453124e-05 0.00016795688)
(0.00056227137 4.5806659e-05 0.0001663236)
(0.00048016018 -2.4291249e-05 0.00011385766)
(0.0006586913 5.8121208e-05 0.00018525454)
(0.0004519744 -5.9114277e-06 0.00011126612)
(0.00070061881 7.2707557e-05 0.00021426207)
(0.00052853109 1.2664575e-05 0.00013074904)
(0.00056418726 6.6705755e-06 0.00013613003)
(0.00049513777 1.5736535e-06 0.0001275072)
(0.0004804052 7.8885196e-06 0.00012470054)
(0.00052306237 -9.5233029e-05 7.7898742e-05)
(0.00066737108 6.6481857e-05 0.00019989164)
(0.0005424764 1.0739997e-05 0.0001493814)
(0.00060726743 -0.00011432814 0.00024558292)
(0.00047272421 1.7436469e-05 0.00012836181)
(0.00053358454 0.00010166753 0.0002362217)
(0.0005318838 1.0261805e-05 0.00012444149)
(0.00054619931 5.6411175e-06 0.0001099619)
(0.00038360708 -4.1272232e-05 6.8052201e-05)
(0.00047208208 -1.8577094e-05 0.0001108242)
(0.00045960029 -4.3682614e-05 9.4564664e-05)
(0.00045324078 -2.8726757e-05 9.6201253e-05)
(0.00071757815 3.795083e-05 0.00019038981)
(0.00071104862 4.0989852e-05 0.00020462403)
(0.0004773266 -1.2798899e-05 0.00012222731)
(0.00073143284 8.2619328e-05 0.00022847964)
(0.00043917426 1.082528e-05 0.00012089808)
(0.00053584126 -1.5107351e-05 0.00010941978)
(0.0005726589 1.9861637e-05 0.00014885922)
(0.00068910325 -5.3316156e-05 0.00018046055)
(0.00056993942 2.4669971e-05 0.00015122568)
(0.00044864052 1.277999e-05 0.00013127716)
(0.00056478199 -3.3828759e-05 0.00012902203)
(0.00053594646 2.0135304e-05 0.00015349862)
(0.00052017247 -2.9342844e-06 0.00013758487)
(0.00054778118 3.6262901e-05 0.00016329467)
(0.00048049494 -1.1947914e-05 0.00013166056)
(0.00055727854 2.2792222e-05 0.00015930907)
(0.00041503031 -2.9501538e-05 9.4600325e-05)
(0.00042184425 -4.0273604e-05 8.2702668e-05)
(0.00038169352 -5.2075314e-05 6.970553e-05)
(0.0005393392 -4.2016657e-07 0.00015032703)
(0.00059308568 3.3940994e-05 0.00016764581)
(0.00060648531 2.2613327e-05 0.00016297123)
(8.1661536e-05 2.6759672e-05 6.4456277e-05)
(0.00056442968 3.1321905e-05 0.00015683417)
(0.00053348953 2.2186684e-05 0.0001591235)
(0.00058787358 3.7358473e-05 0.00017877309)
(0.00055007957 3.2921825e-05 0.00016470359)
(0.00059112798 3.2424961e-05 0.00017443018)
(0.00057934081 4.3353652e-05 0.00018379358)
(0.00058279176 4.0313248e-05 0.00017726323)
(0.00054438016 3.7307643e-05 0.00017084378)
(0.00046661574 3.2203004e-05 0.00014756239)
(0.00046665426 4.717616e-05 0.0001453658)
(0.00066927906 -9.4992172e-05 0.000196927)
(0.00044848715 -4.8647712e-05 0.00015094728)
(0.00038170446 5.2890512e-05 6.8604561e-05)
(0.0004931172 -5.7810542e-05 0.00015394021)
(0.00046672338 5.312391e-05 8.4513741e-05)
(0.00050779815 4.6414266e-05 9.0910551e-05)
(0.00038056593 6.6274604e-05 6.4379323e-05)
(0.00036483729 5.8723887e-05 6.3705852e-05)
(0.00051642021 4.4910928e-05 9.988608e-05)
(0.0004266093 5.6647501e-05 8.2355629e-05)
(0.00040005523 7.0658302e-05 7.002885e-05)
(0.00050822576 3.9698625e-05 9.6267659e-05)
(0.00039896668 5.5237298e-05 7.2994869e-05)
(0.00042727057 4.5089799e-05 8.248356e-05)
(0.00038015084 9.4774012e-05 5.5322325e-05)
(0.00038065606 6.8638381e-05 5.3838227e-05)
(0.00037312749 8.7529533e-05 5.2130724e-05)
(0.00039504831 7.8351919e-05 6.2205757e-05)
(0.0004194339 6.5952339e-05 8.1316991e-05)
(0.00032381594 3.7801215e-05 6.7475642e-05)
(0.00032855319 -3.4498122e-05 0.00012909442)
(0.00046141116 3.0297883e-05 9.5932635e-05)
(0.00040334527 6.8736545e-05 6.6735904e-05)
(0.00023418498 -3.0458912e-05 9.2591033e-05)
(0.00030541025 3.9741355e-05 5.7787356e-05)
(0.00039077486 -4.6657142e-05 0.00014525638)
(0.00051154645 2.400493e-05 9.8738786e-05)
(0.00041375447 3.7154228e-05 9.1964516e-05)
(0.00042453339 3.8340488e-05 9.545803e-05)
(0.00046399933 1.9542085e-05 9.9120054e-05)
(0.00038203916 5.1136832e-05 7.9061445e-05)
(0.00051087166 1.8359039e-05 0.00010671472)
(0.00038393424 2.2736833e-05 8.4980805e-05)
(0.00040469909 3.8325136e-05 9.1999381e-05)
(0.00034226444 4.3556348e-05 7.7622844e-05)
(0.00036196592 6.9076449e-05 5.9155244e-05)
(0.00042034229 3.0775498e-05 9.9727375e-05)
(0.00041329193 3.038159e-05 9.6806439e-05)
(0.00037735557 7.0110551e-06 8.6448372e-05)
(0.00047034433 1.9559486e-05 0.00011299103)
(0.00035414122 5.278271e-05 6.6879617e-05)
(0.00033692531 4.0821397e-05 7.7213028e-05)
(0.00035091015 2.639902e-05 8.1898198e-05)
(0.00039833637 1.5805889e-05 9.6980028e-05)
(0.00040043158 4.9070152e-05 9.1742391e-05)
(0.0004677788 1.1229454e-05 0.0001159077)
(0.00051055427 3.0019103e-05 0.00012870425)
(0.00041481492 1.2199575e-05 0.00010485495)
(0.00054773892 2.6040725e-05 0.00014282027)
(2.724053e-06 8.5263243e-06 -7.5062183e-06)
(0.00065476065 -8.1857026e-05 0.00035775284)
(0.00060865292 -6.2563423e-05 0.00034616124)
(0.00056400943 7.1039261e-06 0.00013830684)
(0.00057948347 1.1748308e-05 0.00011778119)
(0.00039172535 3.9569878e-05 8.8994967e-05)
(0.00067875412 -4.9167853e-05 0.00040777484)
(0.00043594625 2.9143878e-05 0.00011421587)
(0.0004050254 3.0602719e-05 9.8967436e-05)
(0.00055847921 -7.9736212e-07 0.00014228092)
(0.0005263963 2.421442e-05 0.00014434727)
(0.00044098221 2.2841702e-05 0.0001188505)
(0.00051944589 1.7626126e-05 0.00014156958)
(0.00056617034 1.7363638e-06 0.00014158523)
(0.0004915021 7.5866924e-06 0.00013463366)
(0.00046449179 1.3000104e-05 0.00013239057)
(0.00055152481 1.4111649e-06 0.00014566302)
(0.00042711826 2.6605016e-05 0.00011480941)
(0.00054459623 -4.7796681e-07 0.00014673649)
(0.00041442027 4.7537777e-06 0.00012361528)
(0.00045326658 9.1620543e-06 0.00013367477)
(0.00047320032 6.552319e-06 0.00015007292)
(0.00046349807 4.577351e-06 0.00013419909)
(0.00043312205 5.4006772e-06 0.00013378096)
(0.00043995398 1.296131e-05 0.00013130955)
(0.00052153901 -1.7870413e-06 0.0001508153)
(0.00042144255 1.9488991e-05 0.00011783607)
(0.00059316035 -5.3563518e-05 0.00034558107)
(0.00054987308 -7.0775324e-06 0.00015403117)
(0.00057552833 1.24997e-05 0.00019042517)
(0.00044472522 5.72356e-06 0.0001383668)
(0.00051605454 -2.9217073e-06 0.00015152767)
(0.00057204657 6.7891016e-06 0.00018898845)
(0.00059619734 6.7726866e-05 0.00033840617)
(0.0006219896 -1.525416e-05 0.00018446128)
(0.00053317338 1.4227827e-05 0.00017431843)
(0.00063097804 -9.3310506e-06 0.00018340495)
(0.00043400403 -3.472828e-06 0.00013756755)
(0.00053466491 -2.2238382e-06 0.00018096003)
(0.00053753461 -6.1614436e-06 0.00016664618)
(0.00057540987 -2.6145858e-05 0.00018383442)
(0.00058036816 -2.4737544e-06 0.00019555023)
(0.00057130476 2.77872e-06 0.00012230738)
(0.0005325496 -8.0328116e-06 0.00016981434)
(0.00054425356 5.6878175e-06 0.00018089093)
(0.0005937722 -2.0653489e-05 0.0001982289)
(0.00040975223 8.4034789e-05 9.2763305e-05)
(0.00054101864 1.6034695e-06 0.00018446076)
(0.00054020675 -1.119647e-05 0.0001904906)
(0.00053128934 -8.6246925e-06 0.00019688598)
(0.00059233719 -3.7795226e-06 0.00014194494)
(0.00048072323 2.1432442e-06 0.00016019507)
(0.00048302748 5.7806495e-06 0.00014849439)
(0.00057061699 -6.834842e-06 0.00014940165)
(0.00049081352 -1.4475976e-05 0.00018841585)
(0.00056928956 -6.0999134e-06 0.0002014466)
(9.7987571e-05 1.7007147e-05 6.757544e-05)
(0.00055032759 -7.9523627e-06 0.00021670157)
(0.00054397947 -1.6076553e-05 0.00014855325)
(0.00057822536 -8.489911e-06 0.00020561374)
(0.000582759 -2.6360647e-05 0.00019429245)
(0.00063253674 -2.1666497e-05 0.00018644927)
(0.00064343584 -5.8681962e-05 0.0001684255)
(0.00021193939 -6.7169797e-05 5.2813865e-05)
(0.00057211317 -1.3687119e-05 0.0002274062)
(0.00058305515 -8.1254628e-06 0.00021432138)
(0.00057483163 -9.9447993e-06 0.00023409655)
(0.00062957134 -3.9931953e-05 0.00015001281)
(0.00058977454 -1.3537124e-05 0.00025217046)
(0.00059557101 -4.6289877e-06 0.00022357333)
(0.00049717165 1.7432357e-06 0.00016165466)
(0.00063162149 -3.858964e-05 0.00020122973)
(0.00060642449 -8.3624609e-06 0.00023311711)
(0.00048371572 -1.2645611e-05 0.00012061522)
(0.00050862306 -1.8585163e-05 0.00022149092)
(0.0001770826 -4.8084875e-05 5.0877427e-05)
(0.00053958136 4.9951853e-07 0.00020912196)
(0.0006283885 -1.2459311e-05 0.00027239616)
(0.00060913119 -5.3110318e-06 0.00015518806)
(0.0006303129 -3.1959764e-05 0.00018456993)
(0.00055852457 -1.9833481e-05 0.00015747897)
(0.00036632056 -4.3353923e-05 5.9487227e-05)
(0.00065152179 -8.8997425e-06 0.00028042341)
(0.0006898501 -9.6435055e-07 0.00026754522)
(0.00070388949 9.2542426e-05 0.00025856458)
(0.00065453107 -9.6443847e-07 0.00028023736)
(0.00069021631 7.4326189e-05 0.00022847167)
(0.00020773988 -4.3896481e-05 7.6338716e-05)
(0.00060068777 -2.7978367e-05 0.0002105896)
(0.00064661846 -9.0535149e-06 0.00029569142)
(0.00054748242 -2.9902714e-05 0.00019114286)
(0.00054164452 -1.5403445e-05 0.0001911557)
(0.00053293869 -7.942574e-06 0.00019406721)
(0.00018464004 -5.5270933e-05 8.1511761e-05)
(0.00010385116 -1.1423794e-05 4.7743916e-05)
(0.00068522844 -5.6735694e-05 0.00018086798)
(0.00053423267 -7.4852706e-06 0.00011249818)
(0.00065275036 -4.6318052e-05 0.00021693736)
(0.00054534819 -1.5411928e-05 0.00020584571)
(0.0005651066 -2.8492044e-05 0.00015588538)
(0.00050220029 -2.1675853e-05 0.00013274934)
(0.00048285572 -9.764122e-06 0.00019107064)
(0.00064259904 -4.0098149e-05 0.00019467556)
(0.00057402322 -4.158887e-05 0.00016411058)
(0.00065967074 -4.1772703e-05 0.00021787648)
(0.00047741449 -5.9884126e-05 0.00015310678)
(0.00058769206 -1.5591199e-05 0.00024993509)
(0.00064734479 -4.8687779e-05 0.0001954912)
(0.00065615111 -4.8720818e-05 0.00018441253)
(0.00057851055 -3.5242723e-05 0.00020686097)
(0.00059852341 -2.8327226e-05 0.00021536167)
(0.00057299395 -3.5899178e-05 0.00020783404)
(0.00038407889 3.507394e-05 0.00010056363)
(0.00067094285 -4.7566145e-05 0.00023501781)
(0.00054223694 -1.7830893e-05 0.00019644348)
(0.00039992013 5.7271221e-05 8.7845022e-05)
(0.00038186775 -5.6075447e-05 6.3968341e-05)
(0.00041432667 3.2308552e-05 0.00011295335)
(0.00039136824 4.826226e-05 9.1902003e-05)
(0.00050318701 -7.3804477e-05 0.00016055004)
(0.00067924302 -5.22309e-05 0.00024337821)
(0.00067439859 -4.9721779e-05 0.00024539302)
(0.00051172666 -2.3561422e-05 0.00020307028)
(0.00058918279 -4.7668006e-05 0.000233831)
(0.00053816791 7.708617e-05 0.00011802734)
(0.0005559445 -2.0150526e-05 0.0002324381)
(0.00060947658 -6.0784917e-05 0.00023635538)
(0.00041129758 2.7698142e-05 0.0001113868)
(0.00045594758 2.5994302e-05 0.0001355459)
(0.00058887661 -4.0569468e-05 0.00023149037)
(0.00059417984 -5.0180025e-05 0.00023904573)
(0.00055856735 -3.9053255e-05 0.00021688607)
(0.00037731131 8.9669253e-06 0.00010735362)
(0.0004835655 -8.9028839e-05 6.592569e-05)
(0.00050189359 -9.2184664e-05 8.4152436e-05)
(0.0005886478 -5.0574044e-05 0.00024109346)
(0.00058558451 -3.8625065e-05 0.00023358459)
(0.00050426722 2.9991705e-05 0.00015822163)
(0.00038896894 -2.7665583e-05 0.00016515939)
(0.00037933569 -2.8885643e-05 0.00015215763)
(0.00063346686 -3.4243208e-05 0.00016255545)
(0.00049929812 2.1191698e-05 0.00014795618)
(0.0006668905 -4.2813195e-05 0.00017690234)
(0.00064038543 -5.4166909e-05 0.0002075466)
(0.00059286517 -5.8269633e-05 0.00024949271)
(0.00060971721 -4.9372189e-05 0.00021105871)
(0.00056691944 -3.3404799e-05 0.00023668937)
(0.00054261878 -5.2294127e-05 0.00023925242)
(0.00055832967 -3.1211092e-05 0.0002175052)
(0.00051956617 -1.7799002e-05 0.00021444126)
(0.00058327885 -4.439906e-05 0.00023538994)
(0.00060356021 -5.5154515e-05 0.00020899682)
(0.00062507201 -6.0686412e-05 0.00024706596)
(0.00051240288 1.4349694e-05 0.00015465181)
(0.00064203148 -2.7032356e-05 0.0002743607)
(0.00055014475 4.85873e-06 0.00018002533)
(0.00053780422 -3.6135237e-05 0.00024465812)
(0.00044082289 -4.5012804e-05 0.00020370919)
(0.00056246286 -5.1484421e-05 0.00026555336)
(0.0007203484 -7.3343646e-05 0.0003007331)
(0.00063626069 -3.2501636e-05 0.000278858)
(0.00063661276 -3.6733615e-05 0.00027297261)
(0.0006042326 -3.0202895e-05 0.00026050857)
(0.00048923764 4.535099e-06 0.00015728696)
(0.00062814518 2.5969437e-05 0.00020627489)
(0.00050560173 -7.5618994e-07 0.00018326741)
(0.00063178715 -3.5552887e-05 0.00028360272)
(0.00053909846 -2.000767e-05 0.000244824)
(0.00058383521 4.3957083e-05 0.00019685221)
(0.00051403228 -1.76985e-05 0.00023681787)
(0.00056281204 -4.4907712e-05 0.00026489558)
(0.00074486146 -8.1411521e-05 0.00032151736)
(0.00067927711 -6.7972318e-05 0.0003136415)
(0.00057378863 -5.2747315e-05 0.00017671246)
(0.00069311949 4.0103976e-06 0.00026314814)
(0.00056920013 -1.6771249e-05 0.00026346738)
(0.00056476824 -4.9659659e-05 0.00026933582)
(0.00063710641 -6.6791419e-05 0.00024931573)
(0.00053584555 -4.27564e-05 0.00025926903)
(0.00053952016 -3.8374733e-05 0.00024989225)
(0.00034678833 -4.4217028e-05 0.00013782703)
(0.0007553442 -7.6507987e-05 0.00031849688)
(0.0006273667 -3.5766923e-05 0.00028286063)
(0.00069206677 -6.5872257e-05 0.00033214142)
(0.0005841132 -1.5821748e-05 0.00025642689)
(0.00038723099 -4.8738509e-05 0.00014880618)
(0.00020820801 -8.8670961e-06 5.0141348e-05)
(0.00053904713 -3.5687899e-05 0.00026351614)
(0.00036573587 3.2258378e-05 8.4266161e-05)
(0.0005915004 7.7624383e-07 0.00024758966)
(0.00059862946 -3.6170196e-05 0.00028732245)
(0.00070418221 -5.3467156e-05 0.00033973714)
(0.00057704591 7.9708084e-06 0.0001254982)
(0.00070890147 -5.6942162e-05 0.00034361455)
(0.00039570374 5.2114414e-05 8.4515271e-05)
(0.00066092802 -6.2000381e-05 0.0002124027)
(0.00063354746 -3.41737e-05 0.00029804705)
(0.00063082363 -6.7238786e-05 0.00026428303)
(0.00065429507 -9.2344068e-06 0.00029627998)
(0.00048948235 -8.7941375e-05 7.9249167e-05)
(0.00067401015 -6.6847115e-05 0.00031690965)
(0.00067898804 -6.3172196e-05 0.00031114346)
(0.00068074216 -6.7346833e-05 0.00023352637)
(0.0005962375 -3.8440375e-05 0.0002950597)
(0.00045241697 8.6975977e-05 8.2335288e-05)
(0.00062781533 -7.9074763e-05 0.00018218421)
(0.00050132172 -0.00010806776 9.3908534e-05)
(0.00069401167 -5.4438011e-05 0.00034938481)
(0.00061746809 -5.1368006e-05 0.00030322659)
(0.00011235527 1.0327232e-05 7.5144553e-05)
(0.00056982159 -2.3046958e-05 0.00024483252)
(0.00061530835 -5.5635615e-05 0.00031007039)
(0.00060825561 -4.9124947e-05 0.00030847787)
(0.00051954335 2.6493686e-05 0.00014562946)
(0.00057394223 -1.8353435e-05 0.00025301492)
(0.0006869245 -6.4921619e-05 0.000311837)
(0.00067602031 -2.8473411e-05 0.00030626283)
(0.00069070667 -6.318635e-05 0.00033766156)
(0.00053872142 -3.7979338e-05 0.00026375246)
(0.00067744111 -5.9408785e-05 0.00033862063)