/*--------------------------------*- C++ -*----------------------------------*\
  =========                 |
  \\      /  F ield         | OpenFOAM: The Open Source CFD Toolbox
   \\    /   O peration     | Website:  https://openfoam.org
    \\  /    A nd           | Version:  11
     \\/     M anipulation  |
\*---------------------------------------------------------------------------*/
FoamFile
{
    format      ascii;
    class       volVectorField;
    location    "10000";
    object      wallShearStress;
}
// * * * * * * * * * * * * * * * * * * * * * * * * * * * * * * * * * * * * * //

dimensions      [0 2 -2 0 0 0 0];

internalField   uniform (0 0 0);

boundaryField
{
    wall-fluid_domain
    {
        type            calculated;
        value           nonuniform List<vector> 
42113
(
(5.2898044e-06 4.1690793e-06 1.0560772e-05)
(-1.6268223e-06 1.5263844e-05 3.7953007e-06)
(1.1344752e-05 1.0328412e-05 -2.8151233e-06)
(-4.5895135e-05 -1.0422091e-05 5.0230555e-05)
(1.1702131e-05 1.0560019e-05 -6.0613008e-07)
(8.0072132e-06 7.1923968e-06 -4.731958e-06)
(1.1029051e-05 1.0396109e-05 9.420805e-07)
(-3.8483683e-05 -1.1587011e-05 5.3210189e-05)
(-6.2490347e-06 1.4046421e-05 4.314441e-06)
(1.3256235e-05 1.0583772e-05 1.1503292e-05)
(-1.6757364e-07 3.1227611e-06 1.4469601e-05)
(9.2087206e-06 1.4113431e-05 1.0402031e-05)
(-5.481785e-05 -9.3738515e-06 6.355835e-05)
(4.7628608e-06 5.7113281e-06 -1.460596e-07)
(7.8828913e-06 9.7767646e-06 9.1524509e-06)
(5.1106608e-06 4.8871991e-06 -5.0598857e-06)
(2.3981275e-06 1.1942449e-05 -5.5065829e-06)
(4.961914e-06 4.4487509e-06 -4.2650484e-06)
(5.8573238e-06 4.0043417e-06 -9.0985147e-07)
(4.2867895e-06 4.9257949e-06 -3.1915341e-06)
(-2.731702e-05 -7.8470878e-07 7.8036603e-05)
(-4.2954343e-05 4.0849681e-06 9.8133557e-05)
(-0.00011560499 -1.29467e-05 0.00012982905)
(-1.2927935e-05 1.49673e-05 2.8930761e-05)
(1.4483836e-07 1.2274178e-05 9.6646978e-06)
(-4.5819795e-05 -7.5863852e-06 4.7283353e-05)
(6.4544515e-06 6.7260925e-06 3.1887976e-06)
(-5.6059043e-05 3.3466796e-06 0.00010635372)
(3.5072319e-06 1.1030901e-06 1.8900733e-07)
(1.7885523e-06 2.3957064e-06 -4.1832614e-07)
(5.5564643e-06 5.651467e-06 3.594888e-06)
(-1.9761407e-05 1.5971188e-05 1.4547441e-05)
(-5.9121095e-05 1.3184425e-06 0.00010940833)
(-2.1382116e-05 -4.201089e-06 2.4231519e-05)
(-8.1982661e-06 1.0659274e-05 9.7316264e-06)
(-1.5551251e-05 1.3557052e-05 2.6841496e-05)
(-9.7272189e-05 -1.2520647e-05 0.00010197693)
(-3.9973238e-05 -9.87554e-06 4.5645571e-05)
(6.2626982e-06 1.1837032e-05 -1.2466821e-06)
(1.517873e-06 -4.8274062e-06 5.7168199e-06)
(-9.2468281e-07 -4.904143e-06 5.9416839e-06)
(-4.7491391e-05 5.5585717e-06 8.9003905e-05)
(-2.7882436e-06 1.2356899e-05 -3.863571e-06)
(-0.00012657685 -6.6618042e-06 0.00012999609)
(4.1969837e-06 1.0279021e-05 2.279234e-05)
(1.9360864e-06 2.210143e-06 3.5863936e-06)
(-3.1543119e-06 -6.0740232e-06 8.7944202e-06)
(-3.5503157e-06 -4.1290909e-06 5.6106998e-06)
(3.4564059e-06 3.1524971e-06 -2.6361529e-06)
(2.7221101e-06 -2.4397143e-07 1.4364783e-06)
(-0.00013648269 -1.3580401e-05 0.00013903637)
(-4.3969874e-06 -1.1582716e-06 6.7123233e-06)
(-1.8061943e-05 1.402989e-05 2.535329e-05)
(-5.9517822e-05 -2.3452486e-05 5.8320372e-05)
(-5.3755706e-05 1.4262576e-05 0.00011175623)
(1.1969923e-06 4.7008073e-06 -3.7817426e-06)
(-5.9615525e-06 1.1991306e-06 2.2137344e-05)
(-7.9764602e-05 -1.3179929e-06 0.00014243041)
(-4.012008e-07 -2.3922157e-06 4.5652907e-06)
(8.3568177e-07 1.3380947e-06 -1.2148887e-06)
(-6.9181734e-05 -1.3189294e-06 0.00010429054)
(-1.8109583e-05 1.5199088e-05 2.7628468e-05)
(-5.1838241e-06 -4.697545e-06 7.2276597e-06)
(-5.3217629e-06 1.4966668e-05 -5.9666533e-07)
(6.0477616e-06 4.8735666e-06 -1.0042681e-06)
(-8.373575e-05 3.4492762e-06 0.00013049486)
(-0.00010250683 2.2063919e-06 0.00017953129)
(-4.4460236e-06 -9.6143122e-06 1.1177741e-05)
(-8.5153685e-06 1.6494844e-05 8.1161142e-06)
(-4.88346e-05 8.3484125e-06 9.0833792e-05)
(-5.3226316e-05 4.6333847e-06 9.5023487e-05)
(-6.9982076e-05 8.9052802e-07 0.00010643419)
(1.8366714e-06 -2.8038843e-07 1.4866241e-06)
(1.3632906e-06 1.3781076e-05 5.5588834e-07)
(3.516369e-07 3.291619e-06 -1.2668019e-07)
(-8.2925909e-05 -3.5404203e-07 0.00012839521)
(-7.0320054e-05 2.3303565e-07 0.0001080333)
(9.0589476e-06 -4.6626626e-06 -1.5749006e-05)
(4.8428787e-07 8.1203486e-06 -5.454743e-06)
(-0.00012522089 -9.465899e-06 0.00012558661)
(-2.8935185e-06 1.0325579e-05 -1.6669412e-06)
(-3.6994625e-05 -4.1431179e-06 6.1940675e-05)
(-8.3808568e-05 1.8847603e-06 0.00014071618)
(-2.9033998e-07 -5.8842159e-06 7.4226031e-06)
(2.9708924e-05 2.5092701e-05 -4.8071709e-05)
(-4.0556262e-05 -9.9406259e-06 6.1625916e-05)
(-2.2618014e-05 -2.1011142e-06 2.5559816e-05)
(2.6671082e-05 1.8898118e-05 -4.0724491e-05)
(1.5333388e-06 -2.1015278e-06 2.6518013e-06)
(-5.7978463e-05 9.5992693e-07 8.7009977e-05)
(-4.6924405e-05 -1.5207724e-05 5.6252288e-05)
(-4.7726212e-05 -1.454189e-05 5.7581738e-05)
(-0.00010983788 -1.8442752e-05 0.00012318736)
(1.5554023e-06 1.5380799e-05 1.9363701e-05)
(-4.5459763e-05 -1.4035211e-05 5.3727795e-05)
(-1.9140603e-05 1.5021096e-05 2.8342534e-05)
(-4.6023588e-05 -1.4307691e-05 6.0716191e-05)
(-0.00018912664 5.6261812e-06 0.00021601799)
(-1.5000273e-05 -9.2069365e-06 1.7567767e-05)
(-1.8071123e-05 1.1467963e-05 2.0891508e-05)
(-9.593028e-05 2.6024521e-06 0.00018009986)
(-8.8645045e-05 -2.939662e-07 0.00014583158)
(1.2745835e-06 2.7998584e-06 1.6283368e-06)
(-5.498169e-06 -9.6209653e-06 1.0540755e-05)
(-9.7165796e-05 -1.6049752e-05 0.00010732154)
(-0.00010155546 1.6776174e-06 0.00017015051)
(-3.0461523e-05 -1.8942617e-06 4.5805437e-05)
(-4.1386148e-05 -3.689405e-06 5.5225534e-05)
(4.5720291e-06 9.2422848e-06 4.4155858e-08)
(-4.2269461e-06 -7.1096881e-06 9.9989949e-06)
(-0.00012926858 -5.9236174e-07 0.00021620586)
(-9.6205711e-05 5.3424475e-06 0.00014519524)
(1.2088574e-05 -7.7027631e-06 -2.4091732e-05)
(-4.2594681e-05 -2.594998e-06 5.6082141e-05)
(-0.00014523127 -8.0695133e-06 0.00024093892)
(-4.904654e-05 -4.6886497e-06 6.6778858e-05)
(-4.9230621e-05 -7.3251485e-08 6.179159e-05)
(-4.8308357e-05 -6.5921862e-06 6.5743985e-05)
(-0.00011501776 -1.8440694e-06 0.00011773278)
(-0.00014674664 -7.22445e-06 0.00024392112)
(4.4712406e-06 4.6799332e-06 2.7985465e-06)
(-1.6879051e-05 -3.5623222e-06 5.0683576e-05)
(-6.3109203e-06 4.1927472e-06 2.4856255e-05)
(-4.1865535e-05 -2.7784551e-06 5.4343196e-05)
(-4.5381579e-05 -1.3499097e-06 6.4531653e-05)
(-1.7275542e-06 -1.2916531e-06 3.4188877e-06)
(-9.5047053e-05 2.5297663e-06 0.00015870379)
(-0.00012951952 -8.4690918e-06 0.00021420169)
(-0.000133701 -9.543956e-06 0.00022165317)
(-4.8515976e-05 -2.0086465e-06 5.8550017e-05)
(-4.2398771e-05 -6.464197e-06 5.396151e-05)
(-1.5148518e-05 1.3595989e-05 2.7431195e-05)
(-3.4721549e-05 -3.6908443e-06 4.6468462e-05)
(-3.7001978e-05 -3.2358758e-06 5.3176389e-05)
(-8.3038618e-05 -1.9898147e-05 7.8794188e-05)
(-0.00013317282 -1.3094425e-05 0.00020841936)
(-2.0143335e-05 -8.5705781e-06 3.2118695e-05)
(-0.00014819172 -1.0754862e-05 0.00023009604)
(-1.8726228e-05 1.2783679e-05 2.7129119e-05)
(-0.00010170573 4.2372121e-06 0.00018204113)
(-7.2417045e-05 7.1016948e-07 9.7110863e-05)
(-2.4224912e-05 1.212243e-05 2.7854904e-05)
(-0.00010452671 -3.0550912e-06 0.0001890065)
(2.6347112e-06 7.2764572e-06 2.4927734e-05)
(-4.5003563e-05 -1.9099747e-05 6.8844835e-05)
(-8.5408812e-05 3.0664602e-06 0.000138778)
(-2.1805525e-05 -4.4084865e-06 1.9192734e-05)
(-4.188051e-05 -1.3955039e-05 5.0616266e-05)
(1.8420543e-05 -1.6204252e-05 -4.114746e-05)
(-0.00011988541 2.7538008e-06 0.0001901188)
(-9.7344307e-05 -7.5071103e-06 9.7098781e-05)
(1.8012807e-05 -1.5365616e-05 -3.3590551e-05)
(-0.00012127898 2.5502125e-06 0.00020354527)
(-4.3468183e-05 7.3575901e-06 9.8314349e-05)
(-0.000112967 7.9166929e-06 0.00019032871)
(-0.00018542064 2.7457518e-06 0.00020849627)
(-8.380655e-05 3.2877202e-06 0.00013522639)
(-7.5095987e-05 1.147351e-06 0.00011533758)
(-0.00011863625 7.654518e-07 0.0001997702)
(-8.4735013e-05 1.8759591e-07 0.00013380079)
(-4.0314192e-05 -3.9642429e-06 5.1857856e-05)
(-7.2389334e-05 1.6514938e-06 0.00011061828)
(-8.6286899e-05 -2.1950216e-06 0.00014626)
(-6.9693106e-05 -2.9260099e-06 0.00010839051)
(-8.2276633e-05 3.0027646e-06 0.00012921068)
(-6.1721657e-05 2.7147671e-06 9.4308568e-05)
(-7.0963307e-05 8.195623e-06 0.00011010575)
(-4.2548549e-05 -1.3116344e-05 5.2086604e-05)
(-0.00012347981 -1.1540088e-06 0.00015934166)
(-6.795661e-05 7.0224305e-06 9.9839016e-05)
(-7.3466381e-05 -3.6722057e-06 0.00011366344)
(-6.3540468e-05 9.1765726e-06 9.4232719e-05)
(-8.3674308e-05 2.4438373e-06 0.00013600404)
(-4.3366117e-05 -1.0735201e-05 4.7638299e-05)
(-6.704097e-05 7.1299323e-07 0.0001050604)
(-6.9000583e-05 9.5748811e-07 0.00010039504)
(-8.3979153e-05 1.3621145e-06 0.0001373389)
(-8.6808555e-05 2.3502705e-06 0.00013437758)
(-1.5405025e-05 -1.2298114e-05 1.9617431e-05)
(-6.2335644e-05 5.5598443e-06 9.3531117e-05)
(-3.0479844e-05 -1.2497551e-06 7.9603828e-05)
(-4.0775212e-05 -1.5261022e-05 5.0631378e-05)
(-9.2560312e-05 4.7937416e-06 0.00015667511)
(-8.9033304e-05 -1.4108411e-06 0.00013665537)
(-7.3737672e-05 3.3042277e-06 0.00011086187)
(1.5251732e-06 6.4727091e-06 3.029996e-05)
(-1.5626748e-05 1.8693431e-05 2.1015615e-05)
(-7.0496757e-05 -2.5999324e-06 0.00010359629)
(-8.7606125e-06 1.280193e-05 1.3522182e-05)
(-5.708693e-05 -1.1511358e-07 8.60858e-05)
(-2.0484569e-05 1.4780259e-05 2.9507132e-05)
(-7.5356403e-05 -1.5532301e-07 0.00010962567)
(-4.3268628e-05 -1.0536898e-05 4.4779975e-05)
(-7.0778862e-06 1.3007536e-05 7.4944393e-06)
(-8.6392418e-05 -2.847058e-06 0.00013239464)
(-5.0385711e-05 8.8494735e-06 0.00010569549)
(-6.0229866e-05 2.9541645e-06 9.1054272e-05)
(-4.7682088e-05 -7.7686783e-06 5.7465839e-05)
(-0.00011571441 3.4257001e-06 0.00018349337)
(-6.2459926e-05 3.2686467e-06 9.7006932e-05)
(1.1557321e-06 1.3908459e-05 -8.3572481e-07)
(-8.6334233e-05 3.7097923e-06 0.0001406496)
(-8.2700517e-05 1.074058e-06 0.0001356648)
(-0.00014348753 -6.4790576e-06 0.00024242254)
(-0.00013068089 -3.8286459e-06 0.00024357191)
(-6.1355585e-05 3.2181152e-06 9.0471404e-05)
(-0.0001149621 -1.2492131e-05 0.0001149046)
(-4.0486986e-05 -1.2852485e-05 4.7096974e-05)
(3.7123849e-06 1.2191954e-05 -4.7775121e-06)
(-3.3739763e-05 -1.1973714e-05 5.4185974e-05)
(-0.00013621609 5.0998917e-06 0.00022572877)
(-0.00012497394 -1.43828e-05 0.0002015482)
(-9.8132719e-05 -4.253968e-06 0.00016345475)
(-2.3092626e-05 1.6759074e-05 4.1230445e-05)
(-2.2070163e-05 1.5898645e-05 3.2857602e-05)
(-8.4829949e-05 2.9860569e-06 0.00013411396)
(1.8820375e-05 1.106518e-05 -1.9456659e-05)
(-2.4888746e-05 1.5430128e-05 3.7394329e-05)
(-0.00010732651 -3.8152491e-06 0.00017635015)
(-1.6564618e-06 1.2525822e-05 -3.0509774e-06)
(-2.2521886e-05 1.2213007e-05 2.5419005e-05)
(-0.00018783792 4.5808966e-06 0.00033256428)
(2.3158398e-05 -2.2898627e-05 -3.1603091e-05)
(-4.1840599e-05 -1.2496754e-05 4.9781082e-05)
(-0.00011299438 2.245153e-06 0.00019130593)
(-2.1008403e-05 -7.2895268e-06 2.3163324e-05)
(-0.00010297975 -3.5818313e-06 0.00017277986)
(-2.2001723e-05 1.6503143e-05 2.8959327e-05)
(-1.4853159e-05 -7.8700388e-06 2.1059244e-05)
(-3.768956e-05 -1.2442334e-05 4.6082199e-05)
(-2.1832723e-05 -1.1711352e-05 2.0957812e-05)
(-8.3217775e-05 2.1285384e-06 0.00014829258)
(-7.6102404e-05 4.4484936e-06 0.00013846761)
(-3.2185987e-05 -1.2164197e-05 4.1863806e-05)
(-8.2067004e-05 1.9771315e-06 0.00014288415)
(-8.2767563e-05 -1.1924631e-05 6.6789835e-05)
(-8.148463e-05 2.4117349e-06 0.00014578932)
(-3.4058993e-05 -1.1508085e-05 4.7340334e-05)
(-3.9310756e-05 -1.8608641e-05 4.373594e-05)
(-0.00012277164 -3.0174953e-06 0.00020168325)
(-4.5112321e-05 -1.7135199e-05 5.9922354e-05)
(-0.00013333485 3.1848069e-06 0.00022428693)
(-0.00011814441 1.1084735e-05 0.00013669506)
(-0.00013785892 -1.099903e-05 0.00020813016)
(-3.7564216e-05 -1.1539798e-05 4.3528574e-05)
(-1.9057554e-05 1.4495261e-05 3.0740553e-05)
(-4.4983103e-05 -1.4750395e-05 5.6354289e-05)
(-3.7326296e-05 -1.2635718e-05 4.750944e-05)
(-2.4129954e-05 1.3250887e-05 2.7540214e-05)
(-8.1369407e-05 3.6170543e-06 0.00013272826)
(-2.3087417e-05 2.1242241e-05 3.2706743e-05)
(-3.7379281e-05 -9.9549351e-06 4.3970352e-05)
(4.0073008e-05 -1.6809942e-05 -6.3013386e-05)
(-3.8862608e-05 -1.1298419e-05 4.4455187e-05)
(-0.00013444304 -8.8872436e-06 0.00021833898)
(-4.0735849e-05 -1.3065064e-05 4.7497273e-05)
(-1.5592771e-05 7.3321281e-06 9.9817092e-06)
(-3.6112185e-05 -1.2686176e-05 4.8011289e-05)
(-7.359334e-05 -8.3856789e-07 0.00012386597)
(-3.7643062e-05 -1.4363965e-05 4.5566589e-05)
(-0.0001130328 -1.1867774e-05 0.00011709073)
(-9.9797171e-06 1.2492773e-05 8.2638984e-06)
(-8.4996168e-05 -1.6525067e-06 0.00014401283)
(-3.4269142e-05 -1.2288369e-05 5.6523792e-05)
(-8.7420252e-06 1.6042065e-05 2.5836471e-06)
(-0.00010175503 1.435013e-06 0.00016468031)
(-2.1886051e-05 -1.1759415e-05 1.8466009e-05)
(-3.6120385e-05 -1.0082347e-05 4.1572367e-05)
(1.6100329e-05 -1.6430225e-05 -2.7308954e-05)
(-0.00019551702 7.1328563e-06 0.00033886454)
(-4.0877346e-05 -1.3796757e-05 4.4868715e-05)
(-2.5366564e-05 -1.421273e-05 1.9412044e-05)
(-0.00011542085 1.8201527e-06 0.00020094936)
(1.461649e-05 -9.4472337e-06 -2.2231119e-05)
(-3.5788496e-06 5.2045654e-06 1.3316636e-06)
(8.6751261e-06 3.2183082e-06 -1.326566e-05)
(-0.00017504467 7.5385947e-06 0.00020183483)
(-1.8935333e-05 1.4164197e-05 2.5590917e-05)
(-0.00017856145 6.1201217e-06 0.00019867139)
(-4.1353615e-05 -7.6170751e-06 4.9615125e-05)
(-0.00014205261 -8.8782299e-06 0.0002011554)
(-0.00011332685 -5.7095659e-06 0.00016487949)
(-2.2964264e-05 1.2640776e-05 3.1050807e-05)
(-1.8883715e-05 -1.7872235e-05 1.6007533e-05)
(-2.2914153e-05 -2.0351676e-05 2.2301307e-05)
(-2.8241653e-05 -5.8498666e-06 5.0235243e-05)
(2.258443e-06 -1.1746644e-07 7.6089053e-06)
(-2.0553068e-05 -1.7789188e-05 1.5932502e-05)
(-0.00014514028 -5.9151951e-06 0.00024694917)
(-3.1649277e-05 -4.7563626e-06 5.3146568e-05)
(-2.8226698e-05 -1.0364742e-05 5.1609802e-05)
(-3.0630739e-05 -7.8889435e-06 5.0168989e-05)
(-2.4976831e-05 -2.0637461e-06 4.5767201e-05)
(-2.8332466e-05 -1.7363711e-06 4.2880138e-05)
(-9.8986047e-06 -9.7373535e-06 1.2686079e-05)
(-2.9626069e-05 -8.0178349e-06 4.4664783e-05)
(-2.748088e-05 1.6181301e-06 4.9238315e-05)
(-0.00012822688 -1.2280325e-05 0.00013567507)
(-7.8872441e-05 2.4237914e-06 0.00013619031)
(-1.9485835e-05 1.4439224e-05 2.5720554e-05)
(-1.5879533e-05 -2.070898e-05 1.3203719e-05)
(-1.3375727e-05 -7.0835264e-06 1.4726764e-05)
(-2.6475375e-05 1.0384768e-05 3.1061569e-05)
(-0.00012947829 -9.3858937e-06 0.00013631106)
(-0.00018818562 9.1340835e-06 0.00032119281)
(6.3054099e-07 -1.3835667e-05 -1.5204802e-05)
(-1.855672e-05 1.3026491e-05 1.641496e-05)
(-2.4769099e-05 1.5526588e-05 2.4052694e-05)
(-0.00015033178 -7.6198113e-06 0.00021793625)
(8.9525077e-07 -1.7447957e-05 -7.1002754e-06)
(-1.4404748e-05 1.5203887e-05 1.6898365e-05)
(-0.00012943431 -1.1731965e-05 0.00019002442)
(1.5815488e-06 -2.5587618e-05 -6.5416969e-06)
(-1.6276652e-05 -2.5244512e-05 1.4212565e-05)
(-8.075018e-06 9.8727576e-06 1.2397358e-05)
(-0.00010653159 -1.1564318e-05 0.00011095184)
(-9.6433979e-06 1.0917204e-05 9.8541264e-06)
(-0.00011024794 -1.7351184e-05 0.00011517945)
(1.0758394e-06 1.2855392e-05 1.9235784e-06)
(-0.00013566515 -1.0443384e-05 0.00021275709)
(-7.4837618e-06 1.6714821e-05 1.2407517e-05)
(-2.6661579e-05 1.3203236e-05 3.5949063e-05)
(-7.56919e-06 1.4558233e-05 1.2558853e-05)
(-2.3866158e-05 1.5092057e-05 2.7698873e-05)
(-1.6408757e-05 1.60683e-05 2.0403094e-05)
(-0.00012545862 -1.6817941e-05 0.00010427218)
(-2.4371151e-05 1.4689716e-05 3.686045e-05)
(-9.5264693e-06 1.6389923e-05 9.5740555e-06)
(-2.0099151e-05 1.4257079e-05 1.75699e-05)
(-1.2614132e-05 1.0612889e-05 5.7617914e-06)
(-2.1988865e-05 1.0964285e-05 2.1507685e-05)
(-0.00010344977 3.5704929e-06 0.00018485009)
(-0.00012620749 -1.1545894e-05 0.00020781258)
(-1.7585401e-05 1.4056288e-05 2.0184417e-05)
(-0.00012498076 2.3595082e-06 0.00021278719)
(-1.9625293e-05 1.4754985e-05 1.9864943e-05)
(-8.7945446e-06 1.336425e-05 7.8847781e-06)
(-1.8379714e-06 4.001894e-06 2.4196688e-06)
(-2.0185803e-05 1.1274794e-05 1.4494663e-05)
(-1.9741497e-05 1.6890597e-05 1.8199644e-05)
(-1.986173e-05 1.1185302e-05 1.3736335e-05)
(-0.00011603957 -4.1388005e-06 0.00018904095)
(-1.1756086e-05 1.20334e-05 1.268228e-06)
(-9.4155198e-05 -8.3198521e-06 8.9080241e-05)
(-2.4952677e-05 1.4641416e-05 3.9271764e-05)
(-4.5514879e-05 -5.5261293e-06 5.5242179e-05)
(-1.7055271e-05 1.4936575e-05 1.2283407e-05)
(-7.652993e-06 1.8325316e-05 1.289922e-05)
(-6.0375966e-06 1.6830977e-05 4.1914404e-06)
(-1.0522329e-05 1.3989524e-05 6.0161101e-06)
(-1.7744216e-05 1.3300027e-05 1.0341009e-05)
(-9.9046118e-06 1.6958543e-05 6.3399472e-06)
(1.5601627e-06 6.1924243e-06 3.3557004e-06)
(-1.7210695e-05 -8.3426261e-06 1.0867187e-05)
(-1.0119358e-05 1.4595166e-05 1.0425983e-05)
(-1.7216411e-05 1.4746226e-05 1.1312121e-05)
(-1.5747405e-05 1.46186e-05 1.770157e-05)
(-1.0953006e-05 1.2458912e-05 -2.8452233e-06)
(-4.3897399e-05 -1.2696552e-05 3.8775377e-05)
(-1.8090926e-05 1.3182505e-05 1.9340571e-05)
(-1.9937456e-05 1.3905434e-05 1.6820986e-05)
(-0.00013792106 2.9657533e-06 0.00021441105)
(-1.1454912e-05 1.7471992e-05 1.6003583e-05)
(-1.860311e-05 1.8201008e-05 1.6685773e-05)
(-2.2094654e-05 1.5859992e-05 2.1995188e-05)
(-2.4100717e-05 -9.0962525e-06 2.0056481e-05)
(-8.1192644e-07 1.5462343e-05 5.2944541e-06)
(-9.6234985e-06 1.2349757e-05 7.5613697e-06)
(-9.1157252e-05 5.8424124e-06 0.00012417237)
(-0.00014891858 -1.3718867e-05 0.00022502566)
(-1.9673733e-05 1.61119e-05 2.2743355e-05)
(-2.3484975e-05 1.0545942e-05 3.2743557e-05)
(-1.7939458e-05 1.0192454e-05 2.0565802e-05)
(-2.6443893e-05 8.8212562e-06 2.532519e-05)
(-2.1903769e-05 1.8894735e-05 2.7388845e-05)
(-1.7437514e-05 1.4422991e-05 2.5974244e-05)
(4.8911553e-07 7.8410898e-06 1.6527706e-06)
(-2.572002e-05 1.336548e-05 3.6628149e-05)
(-2.0816277e-05 1.4708142e-05 2.7305769e-05)
(-2.4120425e-05 1.685492e-05 4.1860763e-05)
(-2.9027811e-05 1.739033e-05 2.8944219e-05)
(-2.2656273e-05 2.1787187e-05 2.5582479e-05)
(-1.2218744e-05 2.3166061e-05 2.0901307e-05)
(-3.1782442e-06 1.0682437e-05 1.8418491e-06)
(-2.0663855e-05 1.3293083e-05 2.1271327e-05)
(-2.7083323e-05 1.95398e-05 2.736687e-05)
(-3.3654529e-05 1.9945978e-05 3.6615301e-05)
(-2.6735218e-05 1.1608813e-05 2.9685475e-05)
(-9.7325781e-06 1.1820851e-05 8.7209859e-06)
(-3.5070808e-05 2.4682325e-05 4.1065335e-05)
(-3.2071569e-06 1.21719e-05 6.3350868e-06)
(-3.4472722e-05 1.6589498e-05 3.4353252e-05)
(-2.6795718e-05 1.5962388e-05 2.7803309e-05)
(-3.0908724e-05 2.1061636e-05 3.5221759e-05)
(-2.559733e-06 1.1681829e-05 2.7832751e-06)
(-2.3598207e-05 2.7242504e-05 3.1280331e-05)
(3.1969236e-05 -2.9319995e-05 -4.1245571e-05)
(-2.985958e-05 1.6712585e-05 3.3558854e-05)
(-4.5972422e-05 -6.6262205e-07 4.8560853e-05)
(-0.00011609908 4.3027112e-06 0.00018883599)
(-2.1722579e-05 2.0538968e-05 2.5679445e-05)
(-1.0035721e-05 1.4155271e-05 1.8245796e-05)
(-4.7084357e-05 -2.3259029e-05 4.6006745e-05)
(-4.2062111e-05 -2.8620944e-05 4.9185403e-05)
(-4.2424076e-05 -6.7746607e-06 5.2814866e-05)
(-2.9885678e-05 1.1655771e-05 2.77896e-05)
(-3.9098998e-06 1.0865009e-05 1.1690578e-06)
(-6.588066e-06 1.0976039e-05 1.3126653e-05)
(-2.9798488e-05 9.6140617e-06 3.0808255e-05)
(-1.8008343e-06 1.0654131e-05 7.4993321e-06)
(-2.4247627e-05 9.9051801e-06 2.7385999e-05)
(-3.6314666e-05 1.315838e-05 3.646621e-05)
(-3.2675478e-05 1.391547e-05 3.0492377e-05)
(-3.9203129e-05 1.4888596e-05 4.4816578e-05)
(-3.5308916e-05 1.537085e-05 4.034747e-05)
(-6.6040858e-05 -5.3068012e-07 9.8229352e-05)
(-3.5598522e-05 1.9701244e-05 3.3893471e-05)
(-0.00014390163 -1.2276986e-05 0.0002326697)
(-4.3577874e-05 2.0895866e-05 4.4912715e-05)
(-1.0727038e-05 1.8514581e-05 2.2178692e-05)
(-3.076075e-05 2.2911834e-05 3.254155e-05)
(-4.0060067e-05 1.5865929e-05 3.9468002e-05)
(1.2465298e-05 4.1741964e-06 -1.8337426e-05)
(-2.594164e-05 1.5576778e-05 3.3781482e-05)
(-3.5268192e-06 7.2238393e-06 8.5988853e-06)
(-4.0242889e-05 -2.4330459e-05 4.1926429e-05)
(-3.0433338e-05 1.3499621e-05 3.1444432e-05)
(-3.7037304e-05 -1.6266529e-05 4.4946469e-05)
(-3.2954629e-05 -1.4690029e-05 4.784403e-05)
(-4.4761244e-05 1.4290052e-05 4.9355053e-05)
(-4.4786206e-05 2.430327e-05 4.6529325e-05)
(-2.7670399e-05 1.3127125e-05 3.7264304e-05)
(-4.5986062e-05 1.7495192e-05 4.3501171e-05)
(-3.878131e-05 -1.2446257e-05 5.0161222e-05)
(-4.6394733e-05 1.8811332e-05 4.8594966e-05)
(-0.00010969211 -4.7027017e-06 0.00017713012)
(-8.8470112e-05 -4.6496995e-07 0.00015735033)
(-2.779125e-05 1.1246717e-05 3.0951458e-05)
(-0.0001174637 -2.7330059e-06 0.0001716654)
(-2.7890587e-05 -3.289772e-06 4.7233723e-05)
(-9.1200153e-05 3.6544515e-06 0.00016367202)
(-2.4644792e-05 -6.3412616e-06 4.6998627e-05)
(-4.8977606e-05 2.2798974e-05 4.7164915e-05)
(-9.4042039e-05 5.3783152e-06 0.00016608087)
(-2.9860093e-05 1.3681286e-05 3.6544665e-05)
(-7.4579394e-05 9.1628072e-07 0.00014029369)
(-4.2227905e-05 1.2430638e-05 4.749689e-05)
(-4.8750438e-05 2.1999529e-05 5.3736746e-05)
(-0.00010899122 -5.3351858e-06 0.00018704435)
(-5.0377605e-07 5.8191715e-06 4.2076475e-06)
(-9.908982e-05 -2.5990289e-06 0.0001346775)
(-3.1298353e-05 1.3154032e-05 3.0739215e-05)
(-5.0259798e-05 2.3432305e-05 5.8929742e-05)
(-2.9340668e-05 1.3420891e-05 4.2202365e-05)
(-9.5872039e-05 -6.8325741e-06 0.00013373773)
(-3.1515217e-05 1.0555057e-05 3.8007358e-05)
(-5.6187963e-05 2.2319429e-05 6.035924e-05)
(-3.1071301e-05 8.6742205e-06 3.1693158e-05)
(-7.456408e-05 2.6656624e-06 0.00013494186)
(-5.2336526e-05 1.4866142e-05 5.6665479e-05)
(1.2880308e-05 5.4642468e-06 -2.0019928e-05)
(-4.7611032e-05 1.6191589e-05 5.5736589e-05)
(-0.00017050449 1.5118574e-05 0.00029187898)
(-0.00012674523 -2.0053677e-05 0.00013729429)
(-8.0785471e-05 3.4605832e-06 0.000134442)
(-8.7883452e-05 7.5431177e-07 0.00014989831)
(-2.8012366e-05 1.7402132e-05 4.0245045e-05)
(-7.1002459e-05 1.9822983e-05 7.2935429e-05)
(-5.8531465e-05 2.2687157e-05 6.9778188e-05)
(-0.0001030124 -3.2507459e-06 0.00014085615)
(-9.1851738e-05 6.4240482e-06 0.00015751661)
(-7.3015369e-05 9.7287029e-06 0.0001393602)
(-0.00011905851 -4.9927662e-06 0.00016841625)
(-2.8633588e-05 1.1147849e-05 3.0214535e-05)
(-4.8524209e-05 1.8818081e-05 6.166892e-05)
(-4.9854601e-05 2.1133715e-05 6.0827782e-05)
(-3.8691185e-05 1.3023507e-05 4.2904187e-05)
(-4.8757788e-05 9.8127355e-06 5.2932765e-05)
(-5.6900743e-05 1.720582e-05 6.3463249e-05)
(-2.9050476e-05 1.5586015e-05 3.8137775e-05)
(-2.8311569e-05 9.6119921e-06 3.0366039e-05)
(-2.9747674e-05 8.9511292e-06 3.1028738e-05)
(-2.84807e-05 1.0070902e-05 3.6429532e-05)
(-2.8454369e-05 9.2337457e-06 2.9599637e-05)
(-6.2503825e-05 2.1691778e-05 7.6880654e-05)
(-3.2674001e-05 1.2977843e-05 3.7632716e-05)
(-2.9878466e-05 1.408812e-05 4.167028e-05)
(-3.4944354e-05 9.8299065e-06 4.1227833e-05)
(-6.0452656e-05 1.6928048e-05 6.9289626e-05)
(-5.9718474e-05 2.6302059e-05 6.1920301e-05)
(-4.103962e-05 1.6333722e-05 5.2075999e-05)
(-6.018112e-05 2.4677714e-05 6.3047482e-05)
(-3.0047345e-05 1.0699363e-05 3.6063225e-05)
(-5.635665e-05 -1.5409189e-05 4.7650049e-05)
(-3.1220451e-05 1.1285157e-05 3.9738322e-05)
(-6.984808e-05 2.6163482e-05 7.6366254e-05)
(-3.5106343e-05 1.1000563e-05 4.4996213e-05)
(-3.330208e-05 1.2985592e-05 4.5146616e-05)
(-2.8821721e-05 1.3076251e-05 3.9796125e-05)
(-3.4043605e-05 8.2568307e-06 4.0445512e-05)
(-6.6854187e-05 1.8020391e-05 7.3235793e-05)
(-3.6815393e-05 6.7350454e-06 4.516313e-05)
(-3.5677066e-05 1.2328878e-05 5.1536723e-05)
(-4.3422234e-05 1.2552323e-05 5.8871266e-05)
(-3.97695e-05 1.0257162e-05 4.5694867e-05)
(-3.7877948e-05 1.0271987e-05 4.6887602e-05)
(-4.3184878e-05 1.0157027e-05 5.5468565e-05)
(-4.096883e-05 -7.510444e-06 4.9896258e-05)
(-3.9429422e-05 -7.8872952e-06 4.680913e-05)
(-6.0867132e-05 3.2065009e-05 6.9676584e-05)
(-6.4286996e-05 4.2105305e-06 0.00013066938)
(-4.0652073e-05 6.0056545e-06 4.6446673e-05)
(-4.8131292e-05 1.2520703e-05 5.9053327e-05)
(-7.5911695e-05 2.6319583e-05 8.1841367e-05)
(-3.8200358e-05 -7.9894785e-06 4.9325565e-05)
(-4.9928471e-05 7.4215974e-06 5.6648752e-05)
(-4.8399677e-05 8.044076e-06 5.3428733e-05)
(-3.4660389e-05 -1.7020772e-05 4.5643558e-05)
(-8.3827191e-05 3.1159991e-05 9.5016134e-05)
(-4.6777674e-05 1.2877446e-05 5.5973004e-05)
(-5.8859129e-05 9.762915e-06 6.6111825e-05)
(-5.1234492e-05 1.0166985e-05 6.5078935e-05)
(-3.4622499e-05 -1.7357243e-05 4.4883653e-05)
(-4.8681672e-05 1.4817328e-05 6.3175869e-05)
(-8.2443198e-05 2.1363028e-05 8.7715228e-05)
(-6.3910276e-05 1.5459703e-05 7.4267593e-05)
(-1.9093806e-05 -2.1336213e-05 1.1681107e-05)
(-3.8569101e-05 -1.405837e-05 5.7619278e-05)
(-4.0242967e-05 1.1665664e-05 5.0112477e-05)
(-6.9708945e-05 1.8234808e-05 7.7196845e-05)
(-3.3612483e-05 -1.1027678e-05 4.0495199e-05)
(-5.0587671e-05 1.6442539e-05 6.4840303e-05)
(-0.00010412336 -4.4842641e-06 0.00017299247)
(-3.9961785e-05 -1.405544e-05 4.5350177e-05)
(-4.8768727e-05 6.4888304e-06 5.838647e-05)
(-9.5174119e-05 1.790072e-05 0.00011304485)
(-3.043429e-06 1.3774865e-06 7.3420817e-06)
(-7.0075148e-05 2.6978846e-05 7.4517269e-05)
(-6.2713382e-05 8.008109e-06 6.9487134e-05)
(-8.1553866e-05 2.2864507e-05 8.7910646e-05)
(-4.8124317e-05 8.6446043e-06 5.5605448e-05)
(-6.4960633e-05 1.170546e-05 7.4352197e-05)
(-7.1605502e-05 2.3218541e-05 8.5060542e-05)
(-0.0001085215 -6.4876588e-06 0.00018173812)
(-5.0526552e-05 1.084199e-05 5.997532e-05)
(-6.9442128e-05 1.3857722e-05 7.5253039e-05)
(-6.637948e-05 1.5403613e-05 7.7523657e-05)
(-6.5277584e-05 1.118625e-05 7.2980085e-05)
(-5.7220473e-05 1.0285349e-05 6.812596e-05)
(-6.4228031e-05 1.290182e-05 8.0021736e-05)
(-1.4653648e-05 -1.0916368e-05 2.4484416e-05)
(-8.0760039e-05 1.2593719e-05 9.3015194e-05)
(-6.1826634e-05 6.1220596e-06 7.7666498e-05)
(-7.0671054e-05 8.149287e-06 8.1045387e-05)
(-7.4634812e-05 1.5683478e-05 8.8046933e-05)
(-8.1457251e-06 -2.7515239e-05 2.04344e-06)
(-7.1816827e-06 -1.6774487e-05 -2.6590835e-06)
(5.641908e-06 -1.1508591e-05 -7.0759611e-06)
(-7.427377e-05 1.9865899e-06 8.8152512e-05)
(-5.8586612e-05 1.4145716e-05 7.470059e-05)
(-6.2663296e-05 8.8174191e-06 7.9956696e-05)
(-7.3664657e-05 1.0730709e-05 9.1843513e-05)
(1.3118843e-05 -7.5720537e-06 -1.0703951e-05)
(-1.2365632e-05 -2.407435e-05 7.6500039e-06)
(1.1036163e-05 -5.0770108e-08 -1.2945429e-05)
(-6.9941485e-05 6.5765414e-06 8.3674747e-05)
(1.3876251e-05 -1.8464025e-05 -4.6251959e-05)
(-7.7873121e-05 1.7813167e-05 9.0628435e-05)
(-7.7258504e-05 1.730654e-05 8.6088774e-05)
(-6.8379712e-05 1.0341117e-05 7.6856735e-05)
(-7.8759481e-05 1.1884577e-05 9.0289015e-05)
(6.3987263e-06 -2.7126496e-06 -1.2707696e-05)
(-8.1411041e-05 -1.9549707e-05 7.0928741e-05)
(-3.3311908e-06 -5.5112576e-06 9.4801042e-06)
(-8.1640659e-05 1.295611e-05 8.6399814e-05)
(-1.8996552e-06 4.2044212e-06 5.8881495e-06)
(8.8831242e-06 -1.3282756e-05 -9.8256671e-06)
(-3.7097234e-05 -9.6047447e-06 4.6792246e-05)
(3.8794556e-05 -2.3620343e-05 -6.8833807e-05)
(-3.573948e-05 -2.2729376e-06 8.4273124e-05)
(-3.393801e-05 -1.5001306e-05 3.912283e-05)
(-4.001845e-05 4.0601144e-06 9.1950516e-05)
(-3.0579657e-05 -1.4142731e-05 3.6644182e-05)
(-3.6386679e-05 -1.6973641e-05 4.4266504e-05)
(-3.2187604e-05 -2.0181892e-05 4.4769465e-05)
(-3.6895492e-05 2.3439035e-07 7.8975426e-05)
(-3.1977005e-05 -1.2111968e-05 3.8357444e-05)
(-3.8556384e-05 1.0313845e-05 0.00011164196)
(-3.6593914e-05 -1.3065642e-06 0.0001038223)
(-2.930551e-05 -1.6237034e-05 4.2306595e-05)
(-0.00012053818 2.3420331e-06 0.00018689154)
(-3.270841e-05 -1.7004734e-05 4.4767751e-05)
(-3.4545663e-05 -1.4065637e-05 4.5598302e-05)
(-1.3215045e-05 -2.3858064e-05 6.8350052e-06)
(-0.00019191276 2.1210154e-05 0.00031568002)
(-7.3958125e-05 -1.086481e-06 9.9729101e-05)
(-2.751036e-05 1.3563921e-06 7.5717349e-05)
(-2.7076655e-05 3.1645308e-06 7.3514918e-05)
(-7.965737e-05 -2.5848462e-05 7.4126495e-05)
(-8.343566e-05 -1.1274556e-05 7.3963229e-05)
(-9.7560205e-05 -2.0476434e-06 0.00017248392)
(-2.0026753e-05 -1.7163932e-05 5.9924196e-06)
(-8.1437227e-05 2.4711586e-06 0.00014396375)
(-6.0866774e-05 -5.6323975e-06 7.1281207e-05)
(-0.00011220891 -9.548974e-08 0.00019423522)
(-3.4192351e-05 6.3586618e-06 8.3838464e-05)
(-8.7562031e-05 -2.1781187e-06 0.00015669098)
(-9.5797256e-05 2.4066536e-06 0.00016474863)
(-8.7913131e-05 2.526416e-06 0.00015319632)
(-8.218644e-05 3.7828477e-06 0.0001460105)
(-8.5546606e-05 5.7114928e-06 0.00014920727)
(-9.6301462e-05 5.3819377e-07 0.00017001032)
(-9.9042689e-05 1.6245921e-06 0.00017513685)
(-0.00010063931 1.9878333e-06 0.00017106669)
(-0.00010021068 1.9651505e-06 0.00017324312)
(-8.7437599e-05 -1.1330852e-06 0.00015449437)
(-0.0001053162 6.3293361e-06 0.00017737699)
(-8.4360715e-05 1.6100479e-06 0.00014652536)
(-4.2342457e-06 -2.5409991e-06 7.1638929e-07)
(-8.8600458e-05 1.3337679e-06 0.00015025979)
(-8.9951623e-05 -8.4413474e-08 0.0001534401)
(-0.00011522048 6.1140661e-07 0.00019836475)
(-7.0267052e-05 2.436249e-06 0.00012765317)
(-8.9604695e-05 5.3083612e-07 0.00015366655)
(-7.2802924e-05 -1.5697972e-06 0.00012435225)
(-8.3361521e-05 8.0230847e-07 0.00014735452)
(-8.5599306e-05 -1.2346829e-06 0.00014398464)
(-8.5610452e-05 3.1128925e-06 0.00014810069)
(-9.9944282e-05 6.3044649e-06 0.00016358827)
(1.6557688e-05 4.9229725e-06 -2.0912553e-05)
(-7.4225548e-05 -1.659501e-06 0.00012536096)
(-8.9749595e-05 -2.1578676e-06 0.00014830776)
(-7.0473637e-05 -1.6181522e-06 0.00011563034)
(-0.00010885806 -3.0695914e-06 0.00014565975)
(-9.3189198e-05 4.0338391e-06 0.00014838677)
(-8.6221055e-05 4.0951496e-07 0.0001408488)
(-9.0078829e-05 4.0480661e-06 0.00015004368)
(-0.00010915706 2.1508555e-06 0.00015970033)
(-8.39649e-05 4.2978256e-06 0.00013891091)
(-9.2586653e-05 3.1365785e-06 0.00015562142)
(-8.747907e-05 1.2010442e-05 9.9738601e-05)
(-7.5812703e-05 -3.1185597e-06 0.00012844292)
(1.1696505e-05 -1.6177421e-05 -3.409635e-05)
(-0.00010317989 -5.7640076e-06 0.00016781452)
(-8.9952046e-05 2.5755798e-06 0.00015349219)
(-9.2505664e-05 -1.1994381e-06 0.00014864809)
(-8.1042707e-05 3.6808014e-06 0.00013580299)
(-9.9420353e-05 -6.3179747e-06 0.00016466269)