/*--------------------------------*- C++ -*----------------------------------*\
  =========                 |
  \\      /  F ield         | OpenFOAM: The Open Source CFD Toolbox
   \\    /   O peration     | Website:  https://openfoam.org
    \\  /    A nd           | Version:  11
     \\/     M anipulation  |
\*---------------------------------------------------------------------------*/
FoamFile
{
    format      ascii;
    class       volVectorField;
    location    "10000";
    object      wallShearStress;
}
// * * * * * * * * * * * * * * * * * * * * * * * * * * * * * * * * * * * * * //

dimensions      [0 2 -2 0 0 0 0];

internalField   uniform (0 0 0);

boundaryField
{
    wall-fluid_domain
    {
        type            calculated;
        value           nonuniform List<vector> 
50028
(
(0.00025581042 -2.6914573e-05 0.00038763588)
(0.0001827833 -1.2790907e-08 0.00030806531)
(0.00025235722 -3.100393e-05 0.00040170207)
(0.00024414176 -3.3371674e-05 0.00040367875)
(0.00027510475 -1.3859403e-05 0.00030030108)
(0.00027397802 -1.2108802e-05 0.00028521511)
(0.0002725885 -7.454013e-06 0.00027719695)
(0.00025704792 2.3713869e-05 0.00032676263)
(0.00025606949 -1.9815834e-05 0.00037673891)
(0.00026787414 1.8390572e-05 0.00033047249)
(0.00029964759 1.458223e-05 0.00036483701)
(0.00025094113 1.5204133e-05 0.00031177211)
(0.00029463193 2.4355531e-05 0.00035232685)
(0.00029457449 1.2990096e-05 0.00036072082)
(0.00028448773 8.6850393e-06 0.00035606592)
(0.00028843335 1.0509014e-05 0.00035816087)
(0.00018510713 1.8660749e-05 0.00027881597)
(0.00018216371 2.2281708e-05 0.00023566529)
(0.00026406166 1.6618032e-05 0.00031015244)
(0.00030224532 -1.7976896e-05 0.0005105263)
(0.00027991269 1.146016e-05 0.00034688391)
(0.00031753306 2.8569308e-05 0.00037249513)
(0.0001825861 1.5989092e-05 0.00022260565)
(0.00026021676 2.3514828e-05 0.00030484634)
(0.00025775913 -1.9157693e-06 0.00032670095)
(0.00029078634 1.6580053e-05 0.00035339086)
(0.00022681753 1.4204796e-05 0.00028886711)
(0.00026527191 2.9869716e-06 0.00032340023)
(0.00028212686 1.0040093e-05 0.00033778459)
(0.00023072541 4.3606798e-06 0.00029093958)
(0.00025222785 3.8483051e-06 0.00031753882)
(0.00026482989 5.5315477e-06 0.00032021329)
(0.00028135043 1.4021199e-05 0.00033407697)
(0.0002554891 -2.5978665e-06 0.00032197721)
(0.0003014908 1.3683035e-06 0.00036041241)
(0.00028624563 4.5787079e-06 0.00035333166)
(0.00020851947 -2.0008048e-05 0.00026734091)
(0.00025834746 -5.3587011e-06 0.00032264077)
(0.00024602418 4.3210326e-06 0.00031673616)
(2.5682825e-05 -4.6305368e-05 0.00018430165)
(0.00027467095 2.3538647e-05 0.00031139296)
(0.00013924063 -1.1803534e-05 0.0002286484)
(0.00013688626 -1.3327352e-05 0.00022758993)
(0.00014868837 -1.5853787e-05 0.00021868419)
(0.00033530362 -5.4339296e-05 0.00034873569)
(0.00014384353 -1.6161003e-05 0.00020802467)
(0.00011760326 -8.4060941e-06 0.00018516076)
(0.00015106171 -2.1109606e-05 0.00020746448)
(0.00033184715 -4.7752798e-05 0.00036031608)
(0.00013703511 -2.6154291e-05 0.00019195027)
(0.00011255249 -1.4979612e-05 0.00017424859)
(0.00013868781 -3.2551562e-05 0.00016753552)
(0.00010893505 -1.3701336e-05 0.00018860122)
(0.00015271459 -2.8388836e-05 0.00018518954)
(0.00013658576 -4.3337064e-05 0.00016226675)
(0.00014735219 -1.9425353e-05 0.00021664594)
(0.00013463153 -5.2195588e-05 0.00018879786)
(0.00015302818 -1.3660251e-05 0.00024798079)
(0.00028285703 -5.5311536e-05 0.00032800188)
(0.00016299364 -3.5915822e-05 0.00021381431)
(0.00014011655 -4.1125666e-05 0.00016125568)
(0.00026447345 1.0542505e-05 0.00027870698)
(0.00015710279 -3.3570233e-05 0.00017700145)
(0.00030169815 -6.1957929e-05 0.00038647429)
(0.00032163679 -6.0576457e-05 0.00039292916)
(0.00013377869 -4.4376182e-05 0.00011888164)
(0.0002993289 -1.7223468e-05 0.00050803691)
(0.00016298895 -4.2082681e-05 0.00016018931)
(0.00016268445 -3.1717324e-05 0.00019517797)
(0.00026100284 4.2903513e-07 0.00027425742)
(0.00027526049 -3.0692251e-05 0.0002884757)
(0.00017507747 -4.6732404e-05 0.00020200352)
(0.00034029188 -1.3557961e-05 0.00057651467)
(0.0002647187 -2.4889496e-05 0.00027290997)
(0.00016819498 -3.4301639e-05 0.00013967191)
(0.00011349632 -3.2840256e-05 0.00011664963)
(0.0001066094 -4.3646506e-05 0.00010271965)
(0.0002505612 -3.5999853e-05 0.00027611289)
(0.00014695925 -3.9434382e-05 0.00013667252)
(0.00018037808 -3.6237448e-05 0.00018469676)
(0.00015041272 -3.2783359e-05 0.00015609246)
(0.00025744404 1.131387e-05 0.00026851095)
(0.00015917961 -5.9727888e-05 0.00012836481)
(0.00014024292 -5.5484518e-05 0.00013856654)
(0.00033535097 4.0846401e-05 0.00042814872)
(0.00015487084 -5.4838223e-05 0.00012074824)
(0.00014616534 -4.1706975e-05 0.00014050653)
(0.0001488656 -4.0048854e-05 0.00012429374)
(0.00032920514 -1.4598773e-05 0.00056968142)
(0.00013124856 -6.7785347e-05 9.3597058e-05)
(0.00031057801 -5.4361591e-05 0.00035292663)
(0.00013406905 -5.1303544e-05 7.6032117e-05)
(0.00012266012 -2.0099144e-05 0.00015441679)
(0.00012750064 -5.9220724e-05 0.00010087251)
(0.0001179933 -6.0137894e-05 0.00012470584)
(0.00011996277 -5.9650411e-05 4.471895e-05)
(0.00018637735 -2.1861981e-05 0.00019653467)
(0.00032545257 4.3134361e-05 0.00041853502)
(0.0001197081 -6.9723238e-05 6.1200529e-05)
(0.0001528777 -4.4554266e-05 0.00012733204)
(0.00015756463 -2.7060194e-05 0.00016073267)
(0.00011458257 -6.3782545e-06 0.00017872423)
(0.00030468814 5.2078048e-05 0.00041017407)
(0.00012470981 -5.5193677e-05 8.5404801e-05)
(0.00032399503 2.7757621e-05 0.00037531452)
(8.9989046e-05 7.7561135e-06 0.00017479439)
(0.00015622029 -3.2811744e-05 0.00013978185)
(0.00015771761 -3.0951823e-05 0.00017359301)
(0.00014629565 -3.28796e-05 0.00014763608)
(0.00029009369 1.0657162e-05 0.00030823194)
(0.00010848974 -9.0460112e-05 3.8497356e-05)
(0.00010252096 -8.4882576e-05 4.0013485e-05)
(0.00011204942 -6.4314334e-05 8.1894838e-05)
(0.00010294469 -7.9260613e-05 6.0811022e-05)
(0.00012687588 -6.9120898e-05 0.00010093452)
(8.3876596e-05 -5.2879729e-05 4.8228223e-05)
(8.1651018e-05 -2.6551467e-05 8.9122769e-05)
(0.00012229304 -2.0706956e-05 0.00016792089)
(6.948839e-05 -0.00010789462 1.1408304e-05)
(9.6361547e-05 -7.8262001e-05 5.7025335e-05)
(7.61203e-05 -0.00010774075 1.5456316e-05)
(6.3481022e-05 2.273875e-05 9.3717778e-05)
(8.8114736e-05 -8.0473193e-05 4.7820125e-05)
(9.9840637e-05 -8.0349542e-05 5.7377377e-05)
(0.00010237423 -7.3523901e-05 5.5033497e-05)
(9.2902637e-05 -4.77333e-05 8.3394579e-05)
(9.9729092e-05 -3.6192042e-05 9.8093594e-05)
(7.3466192e-05 -4.5654962e-05 7.8041468e-05)
(9.1201899e-05 -2.7962109e-05 0.00013124777)
(0.00022809591 3.846494e-05 0.00032778476)
(7.8951175e-05 1.7431759e-05 8.7090722e-05)
(0.00025332276 -4.3547522e-05 0.00033749905)
(0.00023752349 -4.2516764e-05 0.0003328054)
(6.2107139e-05 -6.1219158e-06 8.1367923e-05)
(5.2590598e-05 4.6502886e-06 0.00010173042)
(0.00023752582 -2.5412529e-05 0.00030435668)
(7.9202587e-05 -9.8642878e-05 3.727355e-05)
(5.7287564e-05 -1.3783528e-05 7.1008766e-05)
(4.3908727e-05 2.8708151e-05 8.1544259e-05)
(7.6268428e-05 -5.0202761e-05 6.1623054e-05)
(4.763804e-05 -7.1694921e-05 6.2353052e-06)
(0.00023868345 -1.6422382e-05 0.00029561291)
(5.5242887e-05 -3.0047224e-05 6.6065155e-05)
(0.00026192448 -5.5173419e-05 0.00035993053)
(8.1505062e-05 -8.7945443e-05 7.0143325e-06)
(3.8049652e-05 2.7110556e-05 7.4442408e-05)
(5.0864605e-05 1.6913669e-06 7.3002314e-05)
(9.8076739e-05 -7.7719502e-05 2.5998657e-05)
(0.00030689829 2.1287516e-05 0.00033051403)
(2.5861315e-05 -7.7658646e-05 2.3912004e-05)
(6.7309168e-05 -0.00010167778 -8.9232826e-06)
(3.8103451e-05 -9.6385096e-05 -2.4936294e-05)
(7.0472103e-05 -9.8192547e-05 2.100082e-05)
(-1.187729e-05 -4.9725919e-05 1.3985512e-05)
(1.7491663e-05 1.5045367e-05 2.6683993e-05)
(1.5570263e-05 -5.0904507e-06 2.6597292e-05)
(-1.2015693e-05 -6.7799685e-05 -5.4998934e-05)
(0.00022569252 -3.2445023e-05 0.00031431144)
(2.6848739e-05 -8.4980313e-05 -1.3818687e-05)
(2.6283523e-05 -0.00011246991 -4.5860686e-05)
(6.5080995e-06 -7.9709956e-05 -3.7937168e-05)
(4.5061723e-05 -8.1889684e-05 -9.3492699e-06)
(0.00026813239 -3.441854e-05 0.00040490762)
(3.067631e-05 -0.000101663 -3.8615104e-05)
(-1.6808747e-05 -9.3628294e-05 -9.6620358e-05)
(6.2152557e-05 -0.00010222873 -2.6519412e-05)
(0.00021776836 -3.1219801e-05 0.00033984455)
(9.907419e-07 -9.3692505e-05 -5.4919769e-05)
(4.8873584e-05 -9.4756289e-05 -1.2301578e-05)
(-6.9440569e-05 -0.00011810763 -0.00015748962)
(-5.2172414e-06 -9.8658878e-05 -7.8635939e-05)
(7.969388e-05 -7.9716856e-05 -1.4485346e-05)
(2.4726845e-05 -0.00011225641 -6.8268669e-05)
(-4.3890585e-05 -0.00012463583 -0.00016097051)
(-3.5362874e-05 -0.00012938756 -0.00014932691)
(-2.3102322e-05 -0.00012381443 -0.00011961144)
(0.00030842171 4.32209e-05 0.00045316441)
(0.00028324958 -3.371548e-05 0.00047915737)
(0.00023995866 -2.825343e-05 0.00036565348)
(-4.2992212e-06 -0.00012135088 -0.00011764332)
(-3.3961342e-06 -0.00011354354 -0.00010181603)
(5.8837976e-05 -6.4277693e-05 -4.6971849e-06)
(2.9065474e-05 -0.00011776399 -8.9982962e-05)
(-2.3185647e-05 -6.908252e-05 -8.0375157e-05)
(1.9798402e-05 -0.0001232672 -0.00011245194)
(-2.8499579e-05 -8.6840406e-05 -0.00011015819)
(-3.0541971e-05 -0.00012255738 -0.00013492338)
(4.7070021e-05 -8.9640921e-05 -4.9819876e-05)
(0.00029740456 -3.5989766e-05 0.00044578866)
(-9.0334975e-05 -8.9141029e-05 -0.00014492656)
(4.0551906e-05 -9.5187267e-05 -5.5514362e-05)
(6.3894177e-05 -7.7587871e-05 -4.1270159e-05)
(-7.6328818e-05 -0.00011856666 -0.00017335348)
(-1.5164197e-06 -0.00012769821 -0.00012705488)
(-6.8659185e-05 -0.0001160155 -0.00017018042)
(-3.5101944e-05 -0.00010653869 -0.00014113731)
(0.00024752676 -1.6598369e-05 0.00032179607)
(2.4701224e-05 -8.6849276e-05 -6.1459822e-05)
(9.8263673e-06 -9.1021947e-05 -9.5569878e-05)
(0.00012681415 -6.8681049e-05 2.7203105e-05)
(3.1219462e-06 -9.8011252e-05 -0.00011033371)
(2.161999e-05 -8.7255101e-05 -7.7659218e-05)
(2.7416229e-05 -8.6493963e-05 -6.4034163e-05)
(-1.7966461e-05 -9.6912815e-05 -0.00012675058)
(-2.7042677e-05 -9.9236844e-05 -0.00014300314)
(0.00032864569 -4.102356e-05 0.00048623742)
(4.8558191e-05 -6.9920034e-05 -3.1906596e-05)
(0.0002963393 -4.6925565e-05 0.00031211601)
(-1.8505573e-05 -9.7027689e-05 -0.00014015149)
(3.6165706e-06 -9.0621971e-05 -0.00010436103)
(1.2011963e-06 -9.1232628e-05 -0.00011952754)
(0.00014302951 -3.5710318e-05 0.00012419118)
(0.00018558244 -2.715057e-05 0.00017711723)
(2.7751542e-05 -8.1494158e-05 -7.6974284e-05)
(-1.0757653e-05 -9.525002e-05 -0.00011160319)
(3.7369191e-06 -9.2239146e-05 -0.00010419332)
(0.00016588952 -1.4219542e-05 0.0001962495)
(0.00019330482 -3.9437606e-05 0.00020659039)
(2.3322352e-05 -8.2262807e-05 -8.449508e-05)
(1.870662e-06 -9.8580036e-05 -0.00011548284)
(1.6658693e-05 -9.1487807e-05 -9.0460615e-05)
(2.1388562e-05 -8.8688176e-05 -8.7312293e-05)
(1.2006318e-05 -0.00011838107 -9.1184542e-05)
(8.7260708e-05 -8.8665886e-05 1.7738591e-05)
(0.00015453675 -2.1371869e-05 0.0001812613)
(1.6372398e-05 -0.00011256651 -7.2574044e-05)
(2.8182718e-05 -9.14439e-05 -7.1575109e-05)
(2.3693268e-05 -0.00011122393 -7.4668615e-05)
(0.00013516859 -5.0919719e-05 8.6402455e-05)
(9.0278812e-06 -0.0001082646 -0.00010556675)
(0.0001508026 -4.9146059e-05 0.00011508803)
(-2.9799905e-06 -0.00012998372 -8.4030098e-05)
(2.6248113e-05 -0.0001101119 -5.8842306e-05)
(3.4318131e-06 -0.00011979836 -8.6255004e-05)
(0.00026089436 2.524744e-05 0.00030835564)
(2.1951473e-05 -0.00011630773 -6.7209895e-05)
(-5.3527961e-07 -0.00010805007 -6.7851277e-05)
(0.00031492053 8.0359014e-06 0.00036635171)
(-9.1659525e-06 -0.00012700552 -8.536927e-05)
(5.4897066e-05 -7.5609009e-05 -3.7456326e-05)
(3.5078338e-05 -6.8403139e-05 -6.14349e-05)
(-1.5783172e-05 -0.00012785474 -9.203864e-05)
(-3.596974e-06 -0.00011147226 -9.8735194e-05)
(0.00017471553 -2.4595823e-05 0.00024043628)
(-3.262544e-05 -8.6261285e-05 -0.00011653131)
(4.178737e-05 -8.2387465e-05 -5.1176249e-05)
(3.958917e-05 -8.3213464e-05 -7.6573975e-05)
(-2.2967403e-05 -0.00012662694 -8.8425409e-05)
(0.00027217646 -1.449993e-05 0.00047708629)
(-6.1155955e-05 -8.0166165e-05 -0.00013565567)
(-7.7888754e-05 -7.4616468e-05 -0.00014789398)
(0.00015859507 -7.637673e-06 0.00024070799)
(0.00030360216 -1.1054319e-06 0.00036019486)
(-1.5199049e-05 -0.00012025471 -9.2954998e-05)
(0.00025614798 -5.7540803e-06 0.00032257033)
(-4.2725445e-05 -0.00013066502 -0.00010711193)
(-3.1681941e-05 -9.5976527e-05 -0.00013272727)
(-6.2677477e-05 -0.00011461681 -0.00017245354)
(-4.2056844e-05 -0.00013581605 -0.00011586088)
(4.2385584e-05 -6.4240863e-05 -5.4251538e-05)
(-6.5165406e-05 -0.00011709791 -0.00012273901)
(4.6096193e-05 -8.4370968e-05 -4.1521776e-05)
(5.7613469e-05 -7.1737427e-05 -5.7372275e-05)
(0.00027930029 2.1341902e-05 0.00031532931)
(-1.5798879e-05 -9.3929988e-05 -0.00011900393)
(0.00020870813 1.4280962e-05 0.00023606035)
(0.00012505359 -1.4895691e-05 0.00031278143)
(0.00023377782 -9.3226342e-06 0.00030102175)
(5.085485e-05 -6.3607253e-05 -4.2056868e-05)
(6.6545959e-05 -6.5677296e-05 -2.4968999e-05)
(-2.695772e-05 -4.5596267e-07 -5.4004828e-05)
(3.4460765e-05 -6.4913183e-05 -2.8266689e-05)
(1.7956841e-05 -0.00010567016 -5.7925142e-05)
(4.5848193e-05 -6.1595557e-05 -2.5376098e-05)
(-1.3748915e-05 -0.00012869319 -0.00012176765)
(4.4362305e-05 -6.3939542e-05 -3.8636269e-05)
(0.00027245207 5.2874074e-07 0.00033905232)
(5.0873654e-05 -5.3730313e-05 -1.8823122e-05)
(2.2975407e-05 -0.00010530202 -5.4062068e-05)
(-4.5349959e-05 -0.00013166338 -0.00012839128)
(0.00015630133 -2.2842544e-05 0.00014449123)
(-8.2693442e-05 -8.3386635e-05 -0.00014566292)
(0.00018101039 -2.6391126e-05 0.00017017002)
(0.00018873607 -3.7736906e-05 0.00019499921)
(3.9710275e-05 -9.338276e-05 -4.1460736e-05)
(4.2271352e-05 -5.2820544e-05 -1.3762241e-05)
(-5.3661791e-05 -0.0001376626 -0.00012287936)
(-3.3092172e-05 -0.00012430161 -0.00011609709)
(5.1024411e-05 -5.1408998e-05 -3.6480607e-05)
(5.0535743e-05 -5.1058608e-05 -1.1563581e-05)
(5.694794e-05 -5.0499358e-05 -1.0489086e-05)
(4.3396789e-05 -5.473822e-05 -2.2010777e-05)
(-2.6490282e-05 -0.00010565554 -0.00013521718)
(0.00015114124 2.1389265e-06 0.00032345288)
(-7.1798914e-05 -5.7971719e-05 -0.00011893384)
(-4.0509313e-05 -9.6362259e-05 -0.00013633823)
(4.2994564e-05 -6.8478218e-05 -3.0739152e-05)
(6.0059993e-05 -5.8639398e-05 -1.0858333e-05)
(-5.8489126e-05 -8.6318051e-05 -0.0001354577)
(0.00018706944 -2.9152029e-05 0.00021622112)
(0.00014177259 -5.9865689e-05 7.0961611e-05)
(-6.2443645e-05 -0.00011419658 -0.00016962367)
(6.6920523e-05 -7.5584277e-05 6.1348111e-06)
(0.00033443442 -4.7261351e-05 0.00035015319)
(0.00014929075 -3.6935927e-05 0.00012261)
(0.00022637834 1.1542794e-05 0.00025632844)
(0.00016107661 -1.1337182e-05 0.00019259885)
(-4.4097277e-05 -0.00014240806 -0.00014392566)
(6.0572353e-05 -4.7376757e-05 1.269835e-05)
(6.0194119e-05 -3.9051996e-05 -8.5033341e-06)
(9.9055466e-05 -4.9734339e-05 -9.3397579e-06)
(0.0001425682 -4.8890408e-05 0.0001099373)
(-6.6695144e-05 -9.3726726e-05 -0.00013574821)
(-3.4557772e-05 -0.00010337493 -0.0001327827)
(-7.6581778e-05 -8.1109909e-05 -0.0001474314)
(0.00028074116 1.6316204e-05 0.0003040344)
(-6.5266858e-05 -9.1974505e-05 -0.0001358233)
(-4.0106331e-05 -0.00010065988 -0.00013863411)
(-7.1037523e-05 -0.0001203577 -0.00015490575)
(-5.9080972e-05 -0.00011272087 -0.00015646522)
(0.00027946024 -3.3803724e-05 0.00042556262)
(0.00025884878 1.1726732e-05 0.00027430777)
(-5.6736858e-05 -0.00011745557 -0.00015521481)
(0.0002505988 -3.0114037e-05 0.00037090081)
(0.00025746941 -2.814599e-05 0.00037446679)
(0.00029270262 -1.9195155e-05 0.00039506376)
(8.5989765e-05 -6.5167346e-05 9.4381036e-06)
(8.6966223e-05 -7.2440927e-05 1.4170126e-05)
(0.00017932328 -2.0318971e-05 0.00022730613)
(-5.169199e-05 -0.00014070947 -0.00014243903)
(0.00019018077 -1.0028873e-05 0.00017890021)
(0.00025710537 9.7101688e-06 0.00026950632)
(0.000183372 -1.9579696e-05 0.00018130162)
(0.00017031275 -3.3846239e-05 0.00015666361)
(0.00019480327 -2.0293174e-05 0.00020530858)
(0.00018730696 -2.1530312e-05 0.00018915223)
(0.00018449331 -2.1520495e-05 0.00017177146)
(0.00025711837 7.8196865e-06 0.0002670819)
(8.7604443e-05 -8.2595876e-05 3.1201227e-05)
(0.00018795388 -4.8222094e-06 0.00018497563)
(0.00019967802 -2.4881743e-05 0.00021688134)
(0.00018197057 -2.5575015e-05 0.00017513345)
(0.00014824409 -1.1509764e-05 0.00021221962)
(0.00019665869 -2.0077221e-05 0.00021491288)
(0.00016654859 -8.9298213e-06 0.00017098336)
(-4.6953999e-05 -0.00011647269 -0.00012422426)
(0.00018733534 -1.9939248e-05 0.00019316375)
(0.00018081637 -7.6906049e-06 0.0001902652)
(0.00017880708 -9.6830172e-06 0.00017697675)
(0.00020481493 -2.0611652e-05 0.00020588585)
(0.00016899955 -8.9479185e-06 0.00017440503)
(0.00020810584 1.9419311e-07 0.00021417001)
(0.00028893944 5.261196e-06 0.00030552224)
(0.00018992607 -2.1055766e-06 0.00020133448)
(0.00021284564 -2.5099593e-06 0.00021670799)
(0.00018115243 -6.1153492e-06 0.00019645787)
(0.00019640694 -6.9440629e-06 0.00020794672)
(0.00031006607 2.4914116e-05 0.00035279382)
(0.00020134079 -2.0103786e-05 0.00023103188)
(0.00015940503 -2.3828151e-05 0.00014027099)
(0.0001186232 -6.5125496e-05 6.6659115e-05)
(0.00021126614 -1.0394712e-05 0.0002226292)
(0.00031284292 1.3264533e-05 0.00035934988)
(0.00020825787 -8.2263354e-06 0.00023290929)
(8.4278442e-05 -3.82277e-05 4.6151108e-05)
(0.0002635093 8.0059783e-06 0.00027859207)
(9.910748e-05 -6.5637767e-05 4.0930421e-05)
(0.00011236709 -5.6795568e-05 5.6156088e-05)
(0.00029786469 2.5661895e-06 0.0003565072)
(0.00013917993 -3.6126066e-05 0.00011663788)
(0.00027847778 8.4964442e-06 0.00029609027)
(0.00027218367 -5.8720731e-05 0.00034307969)
(0.00019331235 -3.6793801e-05 0.00019641995)
(0.00020790336 -1.0983205e-06 0.0002621387)
(0.00019609166 -9.3443626e-06 0.0002577641)
(0.00013288177 -5.1419983e-05 8.5463293e-05)
(0.0001774273 -3.3701281e-05 0.00018009044)
(0.00011646203 -4.2378969e-05 7.6841239e-05)
(0.0002711811 -2.6525359e-05 0.00038395201)
(0.0002734838 -2.7787709e-05 0.00038589399)
(0.0001967829 -1.6816428e-05 0.00020324346)
(0.00012787558 -3.0401627e-05 9.9435785e-05)
(0.0001246328 -4.814685e-05 7.0295136e-05)
(0.00024465771 -1.29829e-05 0.0003240192)
(9.3174093e-05 -4.5207117e-05 5.8592824e-05)
(0.00018309127 -2.4497719e-05 0.0001895082)
(0.00013733865 -3.4568967e-05 0.00011293705)
(0.00028035829 -5.6005656e-05 0.00032202875)
(0.00011243133 -6.8391703e-05 4.9743859e-05)
(0.00010482533 -3.7761751e-05 9.2732428e-05)
(0.00010367871 -2.7163599e-05 8.4227225e-05)
(0.00016805673 -2.4092781e-05 0.00016018393)
(0.00016784978 -1.232811e-05 0.00017204836)
(0.00020396902 -6.2295876e-06 0.00027380581)
(0.00015509886 -1.7692013e-05 0.00018902055)
(0.00012160695 -2.7176415e-05 0.0001302946)
(0.00016659202 -7.5368013e-06 0.00019304528)
(0.00014936575 -2.919837e-05 0.00015512761)
(0.00015956666 -2.8331082e-05 0.00017025555)
(0.00015356039 -2.1881268e-05 0.00016467223)
(0.00011794088 -2.1903867e-05 0.00012425975)
(0.00017752172 -1.5836284e-05 0.00019726908)
(0.0002016639 2.7352562e-08 0.00020961263)
(0.00014199652 -1.9521796e-05 0.000158457)
(0.0001988566 -5.8296666e-06 0.00022332798)
(0.00020616028 -1.3757821e-05 0.00024107755)
(0.00016086297 -1.7716976e-05 0.00019009523)
(0.00029046036 -1.7589265e-05 0.00041587169)
(0.00018401881 -1.9718324e-05 0.00020182694)
(0.00028060283 1.6800487e-05 0.00030614599)
(0.00018686859 -1.0361216e-05 0.0002273158)
(0.00034134251 -4.142766e-05 0.00034303379)
(0.00015244191 -1.2037808e-05 0.00018151038)
(0.0001443575 -1.934437e-05 0.00017326599)
(0.00020750982 -2.7951261e-05 0.00028231557)
(0.00011679233 -1.2905893e-05 0.00012461263)
(0.00030194085 -4.2800478e-05 0.00032184845)
(0.00018334732 -6.6820313e-06 0.00022635666)
(0.00020327864 -1.4072764e-05 0.00022275587)
(0.00019976303 -5.9532913e-06 0.00022867762)
(0.00013794079 -1.5035883e-05 0.00016803769)
(0.000184552 -8.9766209e-06 0.00022780444)
(0.00010364117 -1.6773755e-05 0.00013081222)
(0.00016317656 -1.3485958e-05 0.00020185164)
(0.00019753953 -1.063196e-05 0.00024452974)
(0.00020834783 -1.1865793e-05 0.00023961048)
(0.00020732012 -5.0937097e-06 0.00022888588)
(0.0002884156 -3.3637559e-05 0.00030021793)
(0.0001709078 8.089206e-06 0.00030935963)
(0.00022760088 -2.1883826e-05 0.00022643217)
(0.00018727206 -4.5778254e-06 0.00030545498)
(0.00014650016 -1.3338665e-05 0.00020622932)
(0.00017880229 8.1369314e-06 0.00026489173)
(0.00015658364 -3.4765376e-06 0.00022141009)
(0.00019211676 -1.7025449e-05 0.00025758565)
(0.00019567215 -1.8084602e-05 0.00026794103)
(0.00020227005 -1.0699401e-05 0.00025118572)
(0.00014913274 -9.1652575e-06 0.00029299126)
(0.00019145214 -5.4172646e-06 0.00025296825)
(0.00028988738 -3.2811878e-05 0.00042829143)
(0.0002863069 -3.2617073e-05 0.00042491751)
(0.00029869474 -3.8242403e-05 0.00044224207)
(0.00016311181 -1.1021225e-05 0.00021446605)
(0.00030776257 1.8690549e-05 0.00034946084)
(0.00030539498 5.4155285e-06 0.00034832322)
(-8.1299028e-06 -4.166658e-05 -1.1122593e-05)
(0.00021771376 -5.3736332e-06 0.00029753915)
(0.0003041255 9.8994121e-06 0.00034420211)
(0.00014883518 -1.0672742e-05 0.00018703028)
(0.00033609763 -4.9370446e-05 0.00035326752)
(0.00029502722 6.864958e-06 0.00033111848)
(0.00029720444 -5.2600541e-06 0.00035728647)
(0.00030357468 2.0126094e-05 0.00034593961)
(0.0001420198 -1.1199447e-05 0.00017937999)
(0.00027025685 1.9822908e-06 0.00033043531)
(0.00030373161 2.2878483e-05 0.00033993548)
(0.00026743504 -4.8140516e-06 0.0003224822)
(0.00019228877 -4.8345959e-06 0.00023756512)
(0.00017409372 2.8913305e-06 0.0002556419)
(0.00025262907 -3.1460301e-05 0.00041113305)
(0.00021202038 -1.6079437e-05 0.00028271797)
(0.00020991207 -1.4115071e-05 0.00028613156)
(0.00018649459 -8.4978094e-06 0.00025723346)
(0.00022145736 -1.47724e-05 0.00030107929)
(0.0002107317 -9.4284321e-06 0.00029910926)
(0.00020629808 -2.1309101e-05 0.00030217671)
(0.00020641937 -1.8665255e-05 0.00030311081)
(0.00014922838 -9.8993184e-06 0.00025781722)
(0.00021899538 -1.7118212e-05 0.00031466832)
(0.00015237514 -1.7594681e-06 0.00019320848)
(0.0002069833 -2.9043665e-05 0.0003316815)
(0.00015640315 -1.9728566e-05 0.00025208504)
(0.00010802824 -1.1007493e-05 0.00025159652)
(0.0001120398 -9.7500072e-06 0.00024032696)
(0.0001902071 -3.116841e-05 0.00027667494)
(0.00011821467 -1.9011826e-05 0.00022495114)
(0.0001537313 -1.450514e-05 0.00025576908)
(0.00032010279 -3.8262522e-05 0.00046435361)
(8.7230773e-05 -6.573264e-06 0.00012317248)
(-1.813725e-05 -3.9813572e-05 1.6812244e-05)
(0.00029937865 5.2831514e-06 0.00035078793)
(9.496916e-05 1.1190669e-05 0.00022715864)
(0.00022221639 -1.5797887e-05 0.00031462708)
(0.00029458634 1.7756361e-05 0.00032512303)
(0.000281387 -9.4279456e-06 0.0003418629)
(0.00025176253 -1.7709514e-05 0.0003209724)
(0.00016126572 -1.2046085e-05 0.0002566806)
(-6.8587431e-05 -0.00012328069 -0.00015002558)
(-9.4218128e-05 -0.00010405688 -0.00014326989)
(0.00018761244 -5.0306596e-06 0.00025709952)
(0.00019806673 8.2494977e-06 0.00030394451)
(0.00022748207 -2.2724729e-05 0.00028276234)
(0.00012170774 -1.1760701e-05 0.00023271295)
(0.00016394996 -8.1226102e-06 0.00024979001)
(0.00023132911 -1.3498027e-05 0.00031388713)
(0.00019041179 -2.1184517e-05 0.00026336933)
(0.00016072697 -9.5213785e-06 0.00023841843)
(0.00011745048 -8.3108232e-06 0.00019645587)
(0.00016250212 -2.4556879e-06 0.00023414047)
(0.00027634934 -1.3260807e-05 0.00033044965)
(0.00029575099 2.6147887e-06 0.00033149859)
(-7.3479479e-05 -0.00013799332 -0.00014460044)
(0.00011014923 -8.0522544e-06 0.00018276821)
(0.00022119623 1.3008187e-05 0.00023879083)
(0.00015975467 -5.4492994e-06 0.00021576029)
(0.00011338528 -9.1852078e-06 0.00017254849)
(-7.1079697e-05 -0.00014211772 -0.00013261436)
(9.253004e-05 -6.9100668e-06 0.00016802871)
(0.00022731457 -2.1018323e-05 0.00027048384)
(0.00020599211 1.8842974e-06 0.00024657973)
(0.00021209332 -1.28021e-05 0.00024097279)
(0.00019562949 5.5763517e-06 0.00025148187)
(0.00021217479 -2.8044901e-05 0.00025536893)
(0.00022632604 -2.874553e-06 0.00025368985)
(0.00027025543 -1.1461599e-05 0.00029486274)
(0.0002513785 -2.0512495e-05 0.0002846344)
(0.00027228054 2.2618403e-06 0.00029333821)
(0.00022646543 -2.6195391e-05 0.00026522073)
(0.00026508747 -2.4780797e-06 0.00028788681)
(0.0002623797 -6.6222692e-06 0.00028429896)
(0.00029674198 -2.9012415e-06 0.00031423994)
(0.00018111659 -7.826126e-06 0.0002375975)
(0.00024365945 -9.489353e-06 0.00026044771)
(0.00024644808 -1.552752e-05 0.00027888037)
(0.00028969914 -2.5412974e-06 0.00030677257)
(0.00029667352 -1.703637e-05 0.0003108643)
(0.00028138426 5.9083405e-06 0.00029405173)
(0.00029053657 -1.2215273e-05 0.00030393519)
(0.00023656444 -1.7828568e-05 0.00025661607)
(0.00020674316 1.8367308e-05 0.00029507316)
(0.00023355648 -1.4973198e-05 0.00025166097)
(0.00014091222 -4.016428e-06 0.00020620876)
(0.00029075506 -2.3556591e-05 0.00039138465)
(0.00014694717 1.6929028e-06 0.00021606981)
(0.00023891438 1.363042e-07 0.00024813977)
(0.00019049729 -1.3337138e-05 0.00020224251)
(0.00029810059 -3.6885272e-05 0.00030308483)
(8.4022595e-05 -3.0610402e-06 0.00021011789)
(5.1881216e-05 8.8094618e-06 0.00017747008)
(0.00023567044 -5.0295382e-06 0.00024057741)
(0.00028299007 -1.0185058e-05 0.00029197128)
(0.00022322131 -1.6333578e-05 0.00022936437)
(0.00027596343 -9.9940879e-06 0.00027989973)
(6.1010728e-05 -3.4441552e-05 0.00026123004)
(0.00027839223 -7.1019633e-06 0.00028831095)
(7.5975957e-05 -2.1125388e-05 0.00023218364)
(0.00023310534 -2.0938151e-05 0.00031834654)
(0.00020369312 -3.360356e-05 0.00025142346)
(0.00026644193 -3.8109508e-05 0.00027699616)
(0.00028567187 -2.2674355e-05 0.00028301976)
(0.00025457827 -2.2456392e-05 0.00025439467)
(0.00022664724 1.1429927e-06 0.00022882416)
(0.00017543584 -1.6207692e-05 0.00024975039)
(8.3422396e-05 -2.4659772e-05 0.00023307296)
(0.00027931819 -1.9694385e-05 0.0002805541)
(0.00025591896 -2.2657228e-05 0.00025742222)
(0.00023919205 -2.2006854e-05 0.00023380296)
(0.00023852833 -3.5298893e-05 0.00024879026)
(0.00026212829 -1.2245082e-05 0.0002564353)
(0.00017095382 -2.6280208e-05 0.00022395436)
(0.00024289591 -2.2690274e-05 0.00024014191)
(0.00018083088 -2.1660016e-05 0.00019896217)
(0.00027834547 -1.8012369e-05 0.00038566999)
(0.00021701279 -3.0006106e-05 0.00021711269)
(0.00019721963 5.4350689e-06 0.00029916776)
(0.00019931669 -2.9103221e-05 0.00020624153)
(0.00021214319 -2.9561696e-05 0.00020909852)
(0.00023855695 -3.2987869e-05 0.0002619227)
(0.00024716813 -1.6661086e-06 0.00024765092)
(0.00022145365 -1.5785572e-05 0.00027406726)
(0.00015978641 -3.4252106e-05 0.00019336317)
(0.00029392061 -2.7468327e-05 0.00040730952)
(0.00029158651 -2.925696e-05 0.00039737672)
(0.0002474917 5.200935e-06 0.00031175797)
(0.00012910405 -2.6905607e-05 0.00018505868)
(0.00017260192 -3.6590606e-05 0.00018377057)
(0.00015430105 -2.5887691e-05 0.0001800206)
(0.0003077338 -1.8999899e-05 0.00030139394)
(4.0699852e-05 3.2186678e-06 0.00014986419)
(0.00020889951 -4.4341217e-05 0.00025050436)
(0.00027449032 -2.6490428e-05 0.00046356456)
(0.00025466682 6.0751098e-06 0.00026432664)
(-2.3380044e-05 1.3971862e-05 7.4427201e-05)
(0.00032140489 -9.5852803e-06 0.00032029766)
(0.0002295701 -2.4614366e-05 0.00022579049)
(0.00021344463 -3.0321814e-05 0.00020997876)
(0.00026109921 -2.778103e-05 0.00025941943)
(0.00027289598 -3.641448e-06 0.00028488468)
(0.00016376948 -3.1921275e-05 0.00017272174)
(0.00025471445 -1.5952486e-05 0.000262964)
(0.00026777991 -8.1898913e-07 0.00027803088)
(-7.9883191e-05 -0.00011771983 -0.00014263858)
(0.00021847147 -3.2478307e-05 0.00022436574)
(-7.4907818e-05 -0.00013824752 -0.00014874588)
(0.00024773013 -9.9675098e-06 0.00025409564)
(0.00025523587 -2.3869987e-05 0.00025822486)
(2.8772564e-05 -1.4573985e-05 0.0001197164)
(3.7327522e-05 -2.5396053e-06 0.00013132079)
(0.00024210423 -2.5490146e-05 0.00036424286)
(1.5298377e-05 -4.3780877e-06 0.00011061801)
(-8.6465757e-05 -9.5559361e-05 -0.00013808427)
(0.00025035623 -3.1040565e-05 0.00036148544)
(0.00029674894 -3.8284086e-05 0.00042961194)
(0.00026518823 -2.9800814e-05 0.00037705905)
(-7.4384799e-05 -0.00014076726 -0.00013600742)
(0.0002326461 3.9096039e-05 0.00031273148)
(0.00029047908 -5.5617224e-05 0.00035773488)
(0.0002578648 -5.6163921e-05 0.00032605292)
(0.0002902404 -5.5699011e-05 0.00035614043)
(0.0002902167 -3.9701616e-05 0.00037110962)
(0.00028512233 -5.1166234e-05 0.00033434653)
(0.0002886625 -4.2543727e-05 0.00037289912)
(0.00028123905 -4.432509e-05 0.00033321936)
(0.00028437019 -4.3733859e-05 0.00033017721)
(0.00025376671 -4.7555093e-05 0.000351341)
(0.00026480593 -3.7804928e-05 0.00032958602)
(0.00026625933 -3.1918717e-05 0.000326727)
(0.00026763552 -3.4515225e-05 0.00031318726)
(0.0002528907 -3.7789609e-05 0.00028487382)
(0.00026151551 -3.0658855e-05 0.00031716558)
(0.00026832074 -3.2920276e-05 0.00031396596)
(0.00029195148 -5.962343e-05 0.00033060118)
(0.00029040459 -1.5185715e-05 0.00034431841)
(-1.0088769e-05 -3.5416252e-05 6.615799e-05)
(0.00027477101 -2.700397e-05 0.00030893938)
(0.00026424578 -2.1355932e-05 0.00030901955)
(0.00029039526 -3.8691458e-05 0.00031979792)
(0.00029085064 -1.1326977e-05 0.00034743937)
(3.0557839e-05 -3.5225e-05 0.00018449273)
(0.00020446291 8.4579428e-06 0.00028872367)
(-7.5372965e-05 -0.00012014474 -0.00013521317)
(-8.1717982e-05 -9.9066792e-05 -0.00010748597)
(-8.0131859e-05 -0.00013923492 -0.00013866214)
(-9.8283066e-05 -0.00014087922 -0.00014004808)
(-9.6461407e-05 -0.00013633226 -0.00013647866)
(-9.9017171e-05 -0.00013829464 -0.00013118521)
(-7.896815e-05 -0.00010240458 -0.00010434808)
(0.00029470087 -3.2346583e-05 0.0004200063)
(-8.6795714e-05 -0.00011108928 -0.00010100542)
(-9.789865e-05 -0.00013355521 -0.00012543305)
(-0.00011285845 -0.00013613352 -0.00012752733)
(0.00030420843 -3.2730587e-05 0.00042999299)
(0.00026521813 -3.1696965e-05 0.00037892977)
(-0.00011181154 -0.00012195346 -0.00012417352)
(-0.00012046704 -0.00012838718 -0.00010136631)
(-0.00011240542 -0.00012552108 -0.00012288787)
(-0.00010222333 -0.00013184591 -0.00010831398)
(-7.9259032e-05 -9.7398917e-05 -7.1995176e-05)
(-7.7086406e-05 -9.6859451e-05 -0.00013348105)
(0.0002611964 -3.0971417e-05 0.00037442673)