/*--------------------------------*- C++ -*----------------------------------*\
  =========                 |
  \\      /  F ield         | OpenFOAM: The Open Source CFD Toolbox
   \\    /   O peration     | Website:  https://openfoam.org
    \\  /    A nd           | Version:  11
     \\/     M anipulation  |
\*---------------------------------------------------------------------------*/
FoamFile
{
    format      ascii;
    class       volVectorField;
    location    "10000";
    object      wallShearStress;
}
// * * * * * * * * * * * * * * * * * * * * * * * * * * * * * * * * * * * * * //

dimensions      [0 2 -2 0 0 0 0];

internalField   uniform (0 0 0);

boundaryField
{
    wall-fluid_domain
    {
        type            calculated;
        value           nonuniform List<vector> 
34907
(
(0.000732559 9.2306564e-05 0.0002341976)
(0.00065369361 5.680754e-06 0.00040273424)
(0.00083875599 -9.1824915e-05 0.00047803813)
(0.0008518306 -0.00012975059 0.00038643532)
(-0.00016130522 -0.00017488043 -9.4301899e-05)
(0.00086486478 -0.00013784908 0.00041229847)
(-0.0001898301 -0.00017016335 -8.3770187e-05)
(0.00056090666 -0.00010017471 0.00025409408)
(0.00072473919 -0.00010304624 0.00038085208)
(0.00072671499 0.00011448232 0.00029733919)
(0.00083358236 0.00011807603 0.00041315926)
(0.00073403806 0.00010566752 0.00033916054)
(0.00079271352 -7.198299e-05 0.00020942023)
(0.00071390288 6.905955e-05 0.00019168974)
(0.00079869965 9.7750953e-05 0.00042297985)
(0.00072667238 -9.0832635e-05 0.00020944818)
(0.00059661142 7.7101624e-05 0.00018218717)
(1.8486924e-05 2.9564789e-05 -2.7030594e-05)
(0.00095757619 1.1282118e-05 0.0005774458)
(0.00084883761 -0.00012530788 0.00029506619)
(0.00073904823 -0.00011060671 0.0003808693)
(0.00057438252 -0.00010259368 0.00027123043)
(0.00074558168 -1.5928937e-05 0.00045515683)
(3.0185711e-06 -3.8983908e-05 -3.4202003e-05)
(0.00069084923 0.00010230494 0.00025632432)
(0.00084162923 -0.00012351599 0.00027751501)
(0.00056530642 -9.8921469e-05 0.00024334623)
(0.00073556738 0.0001125266 0.00034687739)
(0.00059837169 -4.2739089e-05 0.00018580847)
(0.00079115744 8.4737844e-05 0.00043365338)
(0.0007101327 0.00010767681 0.00025099209)
(0.00083766962 0.00011865133 0.00042484469)
(0.00056849853 4.1689388e-05 0.00020623509)
(0.00067718 -7.0035061e-05 0.00037922016)
(0.00068298393 -4.2667293e-05 0.00041013994)
(0.00081049961 9.8859339e-05 0.00044241762)
(0.00078087795 5.1089967e-05 0.00046829982)
(0.00067109704 -8.1620831e-05 0.00037486465)
(0.00050228558 -1.1164895e-05 0.00028408273)
(0.00086004105 -0.00012900824 0.00039963062)
(0.00082097348 -9.8025347e-05 0.00024550825)
(0.0007692715 -3.7170907e-05 0.00048557533)
(0.00080567131 9.3054614e-05 0.00023674103)
(0.00066019872 2.271953e-05 0.00040296671)
(0.00041139442 -1.637908e-06 0.00027046988)
(0.00042546971 1.6215579e-05 0.00023198021)
(0.00074866366 -0.00010406908 0.00037360194)
(0.00064463748 9.9966541e-05 0.00027764572)
(0.00082744088 -6.3987088e-05 0.00048799703)
(0.00049592132 4.3604189e-06 0.00020821774)
(0.00064986489 0.00011287344 0.00029496813)
(0.00087816118 -0.00013211579 0.00042016254)
(0.00082567022 0.00013167762 0.00032470818)
(0.00071464064 4.6704336e-05 0.00042756407)
(0.00075049889 -0.00010567521 0.00025443525)
(-1.3188212e-05 -0.00014733003 2.8577129e-05)
(0.00075390721 -0.00011845162 0.00034428642)
(0.00082892142 0.00012460695 0.00030584219)
(3.94741e-05 -9.0077403e-05 9.7344232e-05)
(1.3058432e-05 -6.9129176e-05 -5.2128089e-05)
(2.0180574e-05 -8.5913018e-05 -1.4271668e-05)
(1.0729278e-05 -8.7319297e-05 -1.1794499e-07)
(0.00082885363 -0.00013769956 0.00031031526)
(5.5997597e-05 -5.1742697e-05 4.3981891e-05)
(7.6940868e-05 -8.0266423e-05 7.5623952e-05)
(0.00071735302 -4.258266e-05 0.00019104922)
(0.0008253343 0.00012686324 0.00038150579)
(0.00076787817 0.00010150559 0.00026236912)
(1.8873604e-05 -7.4307392e-05 -3.5078904e-05)
(0.00079999434 -0.0001071989 0.00025202212)
(0.00069395531 -0.00010590491 0.00028484376)
(0.00064559834 5.0281125e-05 0.00019343228)
(0.00078679021 0.00010832544 0.0003963763)
(0.00068527022 -0.00010643363 0.00030171459)
(0.00068282016 5.845762e-05 0.00040583108)
(0.00079929864 0.00011034541 0.00024938687)
(0.00084052178 -8.0038421e-05 0.00048775315)
(0.00078192706 0.00010889809 0.00038697993)
(0.00056075036 -3.6920988e-05 0.00034086286)
(0.00082480402 0.00013052233 0.00033916584)
(0.0007093503 4.6357608e-05 0.00042678448)
(0.00086278098 -9.9502936e-05 0.00046105114)
(1.3820329e-05 -8.0204565e-05 -6.0346861e-06)
(0.00072085573 8.7573731e-05 0.00038779026)
(0.00075567882 -0.00011078372 0.00039155415)
(0.00073614105 -7.3629344e-05 0.00021207578)
(0.00081555219 -8.6856365e-05 0.00023739648)
(0.00070415438 -0.00011818336 0.00029929615)
(0.00076026969 -0.00011472123 0.00034688072)
(0.00078509208 8.1728773e-05 0.00023131531)
(0.00072559409 9.2460651e-05 0.00038658379)
(0.00071724853 -5.0243539e-05 0.0004220346)
(0.00079627462 7.9129652e-05 0.00023688667)
(0.00067498277 4.8424132e-05 0.00039925954)
(0.00084748092 0.0001282 0.00038394816)
(0.00083966866 0.00012484909 0.00036971592)
(0.00084184731 0.00012058338 0.00029212003)
(0.00082232488 0.0001204633 0.00029904154)
(0.00076129856 -0.00011992643 0.00034162959)
(0.00078360388 7.5197472e-05 0.00044995593)
(0.00075448041 -0.00011402676 0.00026598732)
(-0.00010704051 -0.00015441888 -2.6884088e-05)
(0.00047532071 1.5242369e-05 0.00030264302)
(0.00083636564 -0.00013251684 0.00030813193)
(0.000885472 -9.0221796e-05 0.00050115748)
(0.00056294873 -1.3243795e-05 0.00035554452)
(0.00097318623 1.1171821e-05 0.00057298005)
(0.0008064585 -0.00010209065 0.00024717332)
(0.00089010815 -0.00012337187 0.00041312619)
(0.00066582447 -9.9825964e-06 0.00041067094)
(0.00082060498 0.00012902753 0.0003300652)
(0.00081907836 9.8412896e-05 0.00025479646)
(0.00066360802 2.1117289e-05 0.00041034927)
(0.0007596353 6.2198537e-05 0.00043964018)
(0.00077619629 -2.2617169e-05 0.00047859992)
(0.00081625561 0.00012814395 0.00034185106)
(0.00081663123 0.00012493069 0.00031013982)
(0.00078258269 -6.5595586e-05 0.00044750569)
(0.00060789129 -9.1824185e-05 0.00025414735)
(0.00076542752 -0.00010185002 0.00039406371)
(0.00093531974 9.4984707e-05 0.00051095997)
(0.00086002063 -9.6645024e-05 0.00045997782)
(0.00051406956 -1.3368886e-05 0.00019361972)
(0.00053685785 2.6637625e-05 0.00016483955)
(0.00074560323 -0.00010807139 0.00037881942)
(0.00083790685 -0.00013181032 0.0003258783)
(0.0006179035 -0.00010259216 0.00026729959)
(0.00092225407 8.5883206e-05 0.00051292139)
(0.00080367925 -0.00011916178 0.00034996354)
(0.00088730566 -9.4407118e-05 0.00050011493)
(0.00081160414 -0.00012204933 0.00037422454)
(0.00077621245 0.00010693115 0.0003807066)
(0.00087461515 0.00011791572 0.00028806697)
(0.0008314331 0.00010552858 0.00027711836)
(0.00051706851 -3.7640659e-05 0.00015882993)
(1.3700454e-05 -4.7898587e-05 -3.4413771e-05)
(0.00070491729 5.5381288e-05 0.00019574382)
(4.3787252e-05 -1.2281861e-05 4.1768566e-05)
(0.00074957926 0.00011321136 0.00033067997)
(0.00073156619 8.9401992e-05 0.00038129576)
(0.00067499234 -2.7336539e-06 0.00042475666)
(0.00076362343 -0.00011070323 0.00024810548)
(0.00074835666 -0.00011441377 0.00025900683)
(0.00054921656 -2.6224872e-05 0.00024697353)
(0.00046154756 1.3973645e-05 0.00024866754)
(0.00049311896 -3.6460686e-05 0.00021536023)
(0.00078340578 0.00011525855 0.00037517819)
(0.00076745985 0.00011120496 0.00031788065)
(0.00043826027 1.5083278e-05 0.00022558202)
(7.4770534e-05 -8.5466394e-05 0.00010038348)
(0.00072849335 9.7445756e-05 0.00037129875)
(7.649918e-05 -2.6051758e-05 6.2772982e-05)
(0.00048929899 -2.5781009e-05 0.00017487561)
(9.6762416e-05 -5.4256407e-05 6.971335e-05)
(3.40283e-05 -0.00010350892 8.5374142e-05)
(1.4920928e-05 -7.2397811e-05 -4.6008328e-05)
(0.00054995005 3.4457903e-05 0.00019619068)
(1.2587199e-05 -8.5555945e-05 -2.9758105e-05)
(1.4690036e-05 -7.4086762e-05 -3.2929287e-05)
(-0.00025159661 -0.00019071011 -0.00011075948)
(1.1535378e-05 -9.581735e-05 -1.9131566e-05)
(0.00076983772 0.00011838931 0.00033243438)
(0.00072822991 -6.9249458e-05 0.00021149798)
(0.00016181824 -8.4933334e-07 8.9089288e-05)
(0.00091441379 -0.00010020892 0.00026061389)
(0.00061149959 -2.9346191e-05 0.00018342745)
(0.00062684725 3.4975592e-05 0.00019699792)
(-2.2004739e-06 -1.9869109e-05 -7.3834821e-06)
(0.00080977241 -0.00011517128 0.00033804177)
(0.00075780633 7.5328623e-05 0.00021396758)
(0.0008323506 8.4830715e-05 0.00026659231)
(0.0008182221 -0.00012220387 0.00035084751)
(0.00073092603 -9.2699257e-05 0.00022959078)
(1.3276152e-05 4.639e-05 -2.7890412e-05)
(0.00050710506 3.6152251e-06 0.00026294666)
(-7.7717959e-05 -9.5576309e-05 -4.293071e-05)
(0.00088536505 -0.00011343246 0.00046552101)
(0.0004538739 -1.8330963e-05 0.00027464993)
(0.00088011968 -9.6617609e-05 0.0004659772)
(0.00093752785 0.00010115142 0.00050351819)
(0.00082458836 0.00011736377 0.00030508008)
(0.00073719108 -9.8366408e-05 0.00036718384)
(0.00066601261 2.475173e-05 0.0004084435)
(0.00078077491 -3.1945318e-05 0.00047466473)
(0.00058249915 -1.4677226e-05 0.00026592927)
(0.00088678203 -0.00012888117 0.00039813076)
(0.00052853806 -2.9539514e-06 0.00032010491)
(0.00058642987 -2.4126103e-05 0.00026488015)
(0.00055491434 1.1524456e-05 0.00031253335)
(0.00048522188 -3.7511999e-05 0.00032698215)
(0.00087111076 -0.00012577959 0.00033095633)
(0.00049117681 1.1555337e-05 0.00028366715)
(0.00093225625 0.00010287393 0.00049255472)
(0.0008644442 9.9371738e-05 0.00027584211)
(0.0001110552 8.0058383e-06 4.596681e-05)
(0.00053442929 2.5318892e-05 0.00032269652)
(0.00050762193 -1.9298669e-05 0.00033646046)
(1.6142688e-05 -7.4241354e-05 3.9731644e-07)
(0.00088235341 0.00013231085 0.0003075049)
(0.00054194152 9.5285044e-06 0.00028596402)
(0.00055404739 4.1304102e-05 0.00035405285)
(0.00067036661 1.8679583e-05 0.00041376782)
(-0.00015755508 -0.00015745101 -4.9748469e-05)
(0.00078373055 -2.3767078e-05 0.00047771847)
(0.00083380143 0.00013155447 0.00032458108)
(0.00085879608 -0.00012009188 0.00031107889)
(0.00062772589 -4.9146051e-05 0.00017908958)
(0.00056933801 3.8056876e-05 0.00017368617)
(0.00065321979 4.1596632e-05 0.00019182384)
(0.00080213474 -6.2604922e-05 0.00022546051)
(-5.572876e-05 -0.00014928998 2.6175264e-05)
(0.00025469565 -7.0771442e-06 0.00013687921)
(2.9261543e-05 -3.8393623e-05 -2.2864784e-05)
(0.00075419617 -0.00011256357 0.00036357217)
(0.00085886767 -0.00013167517 0.00033920818)
(1.8300225e-05 1.0013441e-05 -2.857027e-06)
(0.00011568836 -4.680199e-05 7.6622775e-05)
(0.00014356633 -5.3130855e-05 0.00010456049)
(0.00084965209 0.00011552523 0.00039334328)
(2.4545936e-05 1.1918323e-05 3.7871551e-06)
(0.00051170639 9.6532112e-06 0.00026748562)
(0.00058885394 4.9560073e-06 0.00026904111)
(0.00084100617 0.00011011067 0.00041537573)
(0.0005839151 1.3662758e-05 0.0003165086)
(0.00052931181 1.2083117e-06 0.00028528193)
(1.4459729e-05 -8.4726796e-05 -5.0197737e-05)
(1.1132451e-05 -8.8473416e-05 -2.7090009e-05)
(1.8229024e-05 -2.6712124e-05 -4.4466543e-05)
(1.6563112e-06 -6.9208066e-06 -2.0456135e-05)
(4.6621661e-05 -4.9715395e-06 2.7460912e-05)
(0.00043757626 -1.3157817e-05 0.00019561765)
(0.00055101672 2.0126938e-05 0.00027802689)
(0.00053558266 1.0056536e-05 0.00026189158)
(0.00061230991 -9.352495e-07 0.00025015799)
(0.00035877358 -2.2822969e-05 0.00016100037)
(0.00048632759 2.1999639e-07 0.00026565735)
(2.2991106e-05 -4.5562412e-05 -4.3883271e-05)
(7.2987353e-05 -1.3637153e-05 3.0275484e-05)
(0.00050086012 -3.3460063e-06 0.00024122929)
(0.00072974891 -2.8550172e-05 0.00026320569)
(0.00086820083 0.00012058597 0.00041210824)
(0.0008770389 0.00011244601 0.00028921818)
(0.00076929411 0.00011344953 0.00032708036)
(0.00051681631 6.5863648e-06 0.00023469562)
(5.2943107e-05 -1.0468801e-05 -1.6520449e-05)
(5.8702687e-05 -9.6511562e-06 1.9164816e-07)
(0.00080757512 0.00010968803 0.00027997632)
(6.4869973e-06 -7.0233121e-05 -4.5143103e-05)
(9.3819718e-05 -1.9290458e-05 5.399978e-05)
(0.00011760038 -3.3506578e-05 8.437975e-05)
(1.4036847e-05 -8.2798093e-05 -5.1600098e-05)
(6.3053921e-05 2.3865441e-06 1.8232883e-05)
(0.00073900972 -0.00010947679 0.00024653523)
(8.0985934e-06 -1.4636138e-05 -2.1682785e-05)
(2.6134405e-05 -7.8064881e-06 -1.6392691e-05)
(3.9296515e-05 1.3601174e-05 -2.6031944e-05)
(0.00055599723 2.2441386e-05 0.00016869651)
(0.00078786041 -5.8910779e-05 0.00022674433)
(7.5846997e-06 -5.7596655e-05 -3.6831415e-05)
(0.00073848747 -9.7846585e-05 0.00026408003)
(8.9622152e-06 -6.6286332e-05 -5.8599207e-05)
(7.5202369e-05 -5.3405805e-06 4.2647701e-05)
(9.8473528e-05 -4.454018e-06 5.9043596e-05)
(0.00078044022 0.00012209874 0.00034704547)
(4.8093841e-06 -8.7495766e-05 -1.2997935e-05)
(0.00076709221 -0.00011076649 0.00032426548)
(6.6583889e-05 -1.4902449e-05 -8.5173109e-06)
(0.00091542312 -0.00013149307 0.00039963257)
(-1.5561956e-05 -7.8956149e-05 1.7206586e-06)
(4.0351773e-05 -3.7021587e-05 2.8741521e-06)
(0.00061381268 1.0756975e-05 0.00025769479)
(-0.000193284 -0.00013383707 -0.00010053519)
(0.00054883463 1.9415639e-05 0.00024235927)
(0.00048753435 1.9599813e-05 0.00029586476)
(5.3378616e-05 -2.8945089e-07 2.0340854e-06)
(7.8771603e-06 -7.5131682e-05 -1.5566978e-05)
(0.00058542056 -1.7061096e-05 0.00034195818)
(0.00060743452 3.3586924e-05 0.00023172064)
(0.00075209122 -1.4447462e-05 0.00026024383)
(-9.1054691e-05 -9.7954645e-05 -3.4267664e-05)
(-5.1031022e-05 -0.00010169879 -9.2234887e-06)
(0.00052967493 -2.5745972e-05 0.00020500968)
(-0.0002018823 -0.00010880518 -0.00011023139)
(0.00057356124 3.3515152e-05 0.00021186462)
(0.00064660605 8.3885751e-06 0.00027969037)
(0.00015773327 -3.6819779e-05 0.00011607235)
(-7.8725758e-05 -9.3161217e-05 -2.5970445e-05)
(0.00044470822 -2.9549199e-05 0.00017586002)
(0.00067458076 5.3214163e-05 0.00019866474)
(-0.00011837412 -9.1413762e-05 -3.8285708e-05)
(7.71462e-05 -7.2109441e-05 8.5020816e-05)
(-0.00021990221 -0.00011460074 -7.9914159e-05)
(0.00051799923 1.3185419e-05 0.00025145055)
(0.00061918119 -5.6593627e-05 0.0001879727)
(-6.4453877e-05 -7.2300987e-05 -1.3811292e-05)
(-0.00021916041 -9.886025e-05 -8.6921788e-05)
(-0.00017723101 -0.00012378835 -6.7078616e-05)
(0.00064464341 1.9183936e-05 0.00029662646)
(-0.00022050167 -0.00010161591 -0.00010425769)
(-0.00022516419 -7.3775701e-05 -0.00010585722)
(-0.00011006747 -7.3850121e-05 -3.1335247e-05)
(-0.0001503087 -0.00012869226 -7.4796368e-05)
(-0.00018388679 -7.4289355e-05 -7.0185802e-05)
(0.00057352758 -4.5761403e-06 0.00021725086)
(-0.00025409823 -7.8181988e-05 -0.00010770237)
(0.00073948153 9.8661268e-06 0.00027302514)
(-1.0177901e-05 -6.8495673e-05 5.2338324e-06)
(-0.00026285298 -6.0486878e-05 -0.00011986957)
(-0.00023385822 -4.560245e-05 -0.000120008)
(6.4574931e-05 5.8594244e-06 2.1777051e-05)
(8.4750142e-05 -7.0354295e-06 8.3758873e-06)
(-0.00023826178 -9.2320378e-05 -0.00012074356)
(0.00074799099 -2.9798426e-05 0.00025366844)
(0.00013929784 9.8705e-08 9.2442414e-05)
(0.00068777264 2.0425386e-06 0.00026201195)
(0.00055941813 3.5162085e-05 0.00019803047)
(0.0001116512 -2.9244287e-06 6.9199614e-05)
(-0.00024122918 -6.5145734e-05 -9.4810991e-05)
(6.273215e-05 1.3626346e-05 6.6320596e-06)
(0.00070379772 8.8192457e-06 0.0002576232)
(0.00051936778 -1.73068e-05 0.00023722159)
(0.00066407451 6.7225228e-06 0.00026649097)
(1.4060121e-05 -1.5640955e-06 -4.0786028e-06)
(2.3867559e-05 -5.3746974e-06 -1.2359606e-06)
(0.00066428073 5.9461447e-06 0.0002777058)
(0.00063853537 -3.5011625e-05 0.00024598991)
(0.00010227626 8.0838754e-06 2.5438367e-05)
(0.00010773443 7.2829337e-06 4.1798464e-05)
(0.00010939609 -4.6802798e-06 5.6302915e-05)
(-3.1080066e-05 -9.0379111e-05 2.264079e-05)
(0.00055422036 1.2866465e-05 0.00020955131)
(-0.00019061857 -5.1286687e-05 -9.132995e-05)
(-0.00026003892 -3.9422776e-05 -0.00013882594)
(0.00053983248 -5.870427e-07 0.00026927228)
(0.00079331012 0.00011454002 0.00030725937)
(0.0005561561 -3.5065158e-06 0.00020999601)
(0.00062607001 6.0944094e-06 0.00021632751)
(0.00063193921 1.1954499e-05 0.00023133294)
(0.00056453404 3.262639e-06 0.00028311187)
(0.00063343933 -3.3170027e-06 0.00021411854)
(-0.00026830491 -1.1877566e-05 -0.00013645496)
(0.00069817466 3.6952454e-06 0.00024772795)
(-0.00019800891 -1.8809461e-05 -0.00011416041)
(0.00068664313 -1.9647585e-05 0.00025012887)
(0.00016612324 -1.8492497e-05 0.0001160896)
(-0.00023839032 -3.245295e-05 -0.00013543602)
(0.00011045725 -9.2988638e-06 2.8037891e-05)
(-0.0002854292 -1.8216118e-05 -0.00012978272)
(9.8415319e-05 -5.2146852e-05 9.3171701e-05)
(0.00063654126 -2.2698224e-05 0.000211374)
(0.00051710633 1.2927339e-05 0.00021120948)
(0.00071676087 4.5501218e-06 0.00025652385)
(6.4069707e-05 -1.807385e-05 1.9573222e-05)
(0.00064781227 -1.066531e-05 0.00021235146)
(1.9143955e-05 -8.1498243e-05 4.1919665e-05)
(0.00010270357 -3.5530747e-06 1.8323517e-05)
(1.39872e-05 -9.4945309e-05 -3.8909854e-05)
(0.00064515007 -1.8850743e-05 0.00026825943)
(-0.00027546219 -5.1443647e-06 -0.00012941956)
(0.00011392746 9.5272964e-06 5.2676903e-05)
(0.00081023015 0.00012237447 0.000325506)
(0.00015426164 1.710106e-05 7.4357203e-05)
(-0.00013671662 -7.4232917e-05 -3.197614e-05)
(0.00015081374 1.3636049e-05 8.4085984e-05)
(-0.00014429675 -4.2300677e-05 -8.4759773e-05)
(-0.00021068672 -2.2397459e-05 -0.00010864882)
(0.00049458249 -2.1808967e-05 0.00020843115)
(1.2611897e-05 -8.6578341e-05 -6.3578138e-05)
(0.00081327935 -0.00011015788 0.00040771421)
(0.00044477434 2.4913176e-05 0.00021929271)
(0.00071931925 -4.8304584e-05 0.0004312498)
(0.00089123359 -0.00011025473 0.00045945378)
(0.00067804689 3.4587015e-05 0.00041452814)
(0.00082506644 0.0001196545 0.00029846662)
(0.00022213032 4.808122e-06 0.00011871332)
(0.00012211266 4.7825984e-06 3.6491536e-05)
(0.00011487686 -2.1283885e-05 3.775369e-05)
(0.00011237864 1.3639807e-05 4.3529437e-05)
(3.5910542e-06 -3.9158625e-05 -4.3386806e-05)
(0.00065215661 4.0015559e-05 0.00020033397)
(1.0530044e-05 -5.3288134e-05 -5.8114645e-05)
(-0.00018031729 -4.0434686e-06 -8.1607097e-05)
(4.0805734e-06 -9.4909577e-05 -1.2567521e-05)
(0.00097835494 -8.3754364e-05 0.00025460655)
(0.00011881954 -3.6202665e-06 3.4018469e-05)
(1.8941416e-05 -1.565437e-05 -3.4970152e-05)
(0.00012206026 9.3684471e-06 4.2021366e-05)
(-8.046986e-05 -7.5656114e-05 -3.7066476e-05)
(0.00014564766 2.0939739e-05 5.5746835e-05)
(0.00054329939 -2.5199498e-05 0.00022113853)
(0.0001660593 7.1125879e-06 4.7920576e-05)
(0.00016849404 1.9957374e-05 7.0535506e-05)
(-7.5843828e-05 3.6919747e-06 -5.749878e-05)
(-4.0491359e-05 4.0887233e-05 -3.7043335e-05)
(0.00045711898 8.7787748e-06 0.00023325357)
(6.8678387e-05 4.7345622e-07 3.2857123e-05)
(0.00014676766 -2.8400224e-06 3.1114775e-05)
(0.00047622604 8.158788e-06 0.00022153017)
(0.00016744019 2.5041717e-05 7.7684569e-05)
(0.00050657523 -6.3672578e-06 0.00020638424)
(0.00017114919 3.5889302e-05 8.0216823e-05)
(0.00017246834 6.9036341e-06 9.2765705e-05)
(-0.00025331355 2.0062031e-05 -0.00011875494)
(0.00046910725 -7.3331521e-07 0.00022067223)
(0.00017417693 2.5847179e-05 9.6976418e-05)
(4.6791142e-05 -1.901307e-06 4.0010658e-06)
(0.00015178344 -2.6745174e-05 8.5661792e-05)
(0.00084649959 -7.0026674e-05 0.00023395922)
(0.0004388188 2.5612989e-05 0.000177132)
(0.00017347489 2.5898295e-05 7.1477791e-05)
(0.00016791774 1.5697033e-05 5.8887e-05)
(0.00013901731 -1.8131415e-06 8.1500005e-05)
(3.3818216e-05 -7.0577973e-05 6.657323e-05)
(0.00080232445 9.273216e-05 0.0004191727)
(0.00017722654 3.9613151e-05 6.8098043e-05)
(1.210175e-05 -1.8419744e-05 -2.7784338e-05)
(-0.00029732598 1.0742752e-05 -0.00015867158)
(0.00013443863 2.2648612e-06 6.7006769e-05)
(1.4052879e-05 -7.0572459e-05 -2.579909e-05)
(0.00086408807 -0.00013463573 0.00033795724)
(-0.00023532633 -1.4377859e-05 -0.00010882386)
(-2.6556818e-06 -7.0653454e-05 -1.0313746e-06)
(1.1845043e-05 -2.3538298e-05 4.4321598e-06)
(0.00067572404 -2.5906671e-05 0.00040754227)
(0.000145176 6.4692858e-06 8.2643533e-05)
(0.00068113476 2.2250183e-05 0.00041207977)
(0.00015047192 1.8751008e-05 5.4269506e-05)
(-0.00012816289 4.70112e-05 -9.3762474e-05)
(8.203947e-05 4.4877393e-05 5.7192389e-05)
(4.5164538e-05 9.8309549e-06 1.9759482e-06)
(1.5201498e-05 4.2920784e-05 -2.6565055e-05)
(0.00016448221 4.5530799e-06 7.8985554e-05)
(7.5484011e-05 4.5938031e-05 3.2421472e-05)
(0.00016348163 -2.7147049e-06 6.4862939e-05)
(0.00080244406 0.00010124121 0.00041320059)
(0.00013764779 -1.3241051e-05 5.0829739e-05)
(-6.1409142e-06 -6.6096851e-05 -1.6857227e-05)
(-0.00018458882 -4.9128469e-05 -8.4360809e-05)
(-0.00026620899 3.015612e-05 -0.00011954891)
(2.3745992e-05 7.8507784e-05 1.3289194e-05)
(-7.0759468e-05 5.7425475e-05 -6.405118e-05)
(8.6371068e-05 9.5021418e-05 3.5751208e-05)
(1.1524778e-05 -0.00010084447 -3.7875006e-05)
(-0.00031371534 1.9309193e-05 -0.00014994931)
(0.00054958187 -1.9018836e-05 0.00021290118)
(0.00063788195 -2.1009046e-05 0.0001898138)
(0.0007760514 6.0494837e-05 0.00022337004)
(1.9301285e-05 6.671199e-05 3.5326745e-05)
(0.00050239352 -1.9652401e-05 0.00021098683)
(0.00059476905 2.2116141e-05 0.00022735774)
(0.0001154426 -2.4451627e-05 5.7329259e-05)
(-0.00012557723 -5.1809572e-05 -7.1158803e-05)
(0.0003622019 -3.1346465e-05 0.00016059255)
(5.8329694e-06 -3.4154332e-05 -5.8421636e-05)
(0.00058544171 3.0246601e-05 0.00024832325)
(-6.2754992e-05 5.4576697e-05 -4.9557315e-05)
(0.00094372396 -0.00013516738 0.00043752768)
(-6.5892165e-06 5.8004473e-05 2.9004732e-05)
(0.00011131564 -1.9321261e-07 7.1326857e-05)
(0.00040548063 2.2107882e-05 0.00019387795)
(-0.00028550445 3.7983314e-06 -0.0001450488)
(0.00016543966 4.529887e-05 7.1068814e-05)
(0.00011197748 7.9715451e-05 4.7816361e-05)
(4.3498295e-06 -5.493921e-05 -6.4759007e-05)
(0.00020537839 3.6868878e-06 0.00010356786)
(0.00023451568 9.5591531e-06 0.00012501968)
(-0.00021621978 6.033486e-05 -0.00010298914)
(1.0084746e-05 -8.5214854e-05 -6.3900421e-05)
(0.0006505283 2.521668e-05 0.00021669418)
(0.00018427471 4.5253717e-05 8.4136763e-05)
(0.00084604183 -0.00012260501 0.00031181732)
(9.7920059e-05 7.8814879e-05 4.4238568e-05)
(-0.00023907172 -2.7115994e-05 -0.00010703946)
(0.00018362602 3.9600179e-05 5.8341248e-05)
(-8.4405991e-05 4.1474923e-05 -2.5802519e-05)
(0.0007702897 -0.00011380136 0.00031720978)
(0.00086522804 -3.634419e-05 0.00031201089)
(0.00017692971 6.4683762e-05 7.734954e-05)
(-0.00019728043 -3.6522504e-05 -9.7532124e-05)
(8.2424108e-05 6.5392832e-05 4.251628e-05)
(-0.00017873102 3.5032375e-05 -8.0019615e-05)
(-0.00019904426 3.1950243e-05 -0.00010046359)
(-0.00019575576 4.8993563e-05 -0.00010773137)
(0.00080375813 5.6553704e-05 0.00047250749)
(-1.9144877e-06 2.6452323e-05 1.2208754e-05)
(0.00079532395 -6.2991603e-05 0.00046313339)
(-0.00029707834 2.7075344e-05 -0.00014388258)
(0.0006190859 -2.0512724e-05 0.00020396439)
(-0.00016439831 4.9516636e-05 -8.7397206e-05)
(4.5917496e-05 4.2906877e-05 3.9858221e-05)
(0.00082775994 6.7882711e-05 0.0004762564)
(0.00014077293 -2.0363826e-05 6.3762359e-05)
(0.00065382431 8.8787088e-06 0.00022300458)
(7.0845867e-05 9.1281908e-06 2.8349888e-05)
(-0.00015593279 5.7042294e-05 -7.8410924e-05)
(-4.0471701e-05 1.6983454e-05 -1.6742312e-05)
(-0.0002935496 4.6018886e-05 -0.00015240987)
(0.00054186827 -3.1998836e-05 0.00020985087)
(0.00012405416 -2.0231222e-05 6.7226672e-05)
(-0.00029657575 4.6271048e-05 -0.000151265)
(2.4519267e-05 4.5223555e-06 -1.7558378e-06)
(-0.00031312715 1.1905043e-05 -0.00015139631)
(0.00018961098 6.2152451e-05 6.4865016e-05)
(0.00063672789 3.6424786e-05 0.00023623836)
(4.582292e-06 -7.706399e-05 -2.7937064e-05)
(7.280251e-05 8.238833e-06 1.4540938e-05)
(0.00018171191 9.5380444e-05 8.7636541e-05)
(0.00016608424 5.7640227e-05 6.6324392e-05)
(0.00066031367 1.7828947e-05 0.00022229594)
(0.00017973506 -3.6862201e-06 9.719862e-05)
(0.00087155444 -8.2190215e-05 0.00050105964)
(-0.00028940359 3.3784154e-05 -0.00014764886)
(-0.0003130463 2.2149243e-05 -0.0001568647)
(3.0833049e-05 -1.264288e-05 1.7617463e-05)
(0.00065403374 2.3488055e-05 0.00021391771)
(-5.6172261e-06 -7.6143749e-05 -1.6123028e-05)
(0.00079955728 9.5209457e-05 0.00026253495)
(0.00053314197 3.9605606e-05 0.00017075267)
(0.00069333899 3.0771155e-06 0.00021467405)
(-0.00021446103 -3.3853308e-06 -0.00010518012)
(-0.00019966892 -8.8746877e-06 -0.00010034331)
(0.00069979723 -5.9964693e-07 0.00030369554)
(-0.00026520212 2.1149854e-05 -0.00013152581)
(0.00056547743 -6.1918654e-06 0.00026536548)
(0.00077761566 -3.0581274e-05 0.00021104281)
(0.00088137984 -2.602959e-05 0.00029719242)
(-0.00024730606 7.3112433e-07 -0.00013013097)
(-0.00024721971 -1.1380789e-05 -0.00011850478)
(-0.00013469555 -5.3606604e-05 -6.2121727e-05)
(-3.1440208e-05 -4.5485468e-05 -6.1983756e-06)
(0.00067090779 -1.7026944e-05 0.00020874436)
(0.00091969082 -0.00010728789 0.00025557355)
(0.00091751675 -0.00011089976 0.00026954004)
(0.00083708797 8.2505665e-05 0.00026564441)
(-7.2559104e-06 -2.5999918e-05 -4.0817095e-05)
(0.00090117282 8.0197566e-05 0.00028129411)
(0.00042761106 -1.1280061e-05 0.00024741347)
(-1.1073505e-06 -1.0785813e-05 -5.4737904e-05)
(0.00049540965 4.1599574e-06 0.00028418099)
(3.7074334e-05 1.0108935e-05 1.8983019e-05)
(3.4515538e-06 -4.7676001e-05 -6.8467564e-05)
(3.9796391e-05 -1.1099548e-06 1.571543e-05)
(5.7421116e-06 -7.902679e-05 -6.211999e-05)
(1.4478801e-05 -3.0662567e-05 -6.4388488e-05)
(4.3867472e-05 6.5901813e-06 8.9195316e-06)
(9.9881906e-06 -8.9372819e-05 -5.6141326e-05)
(1.135362e-05 -9.0414723e-05 -5.2759429e-05)
(1.3961924e-05 -6.253868e-05 -7.156915e-05)
(5.6087006e-05 1.8612395e-05 3.2034591e-05)
(-0.00014804594 -4.3927267e-05 -6.431519e-05)
(4.0200444e-06 -8.1738486e-05 -2.5394779e-05)
(3.7032901e-05 -1.8211705e-05 -3.9105133e-05)
(3.9073324e-05 -1.4444354e-05 2.4967111e-05)
(7.216932e-05 7.1390671e-06 3.913448e-05)
(6.7608919e-05 1.8323741e-06 4.6255328e-05)
(0.00069667876 6.8301162e-05 0.00039883301)
(0.00062142359 -3.7013923e-05 0.0002249787)
(1.0901773e-05 -0.00010013052 -3.5678828e-05)
(0.00066480356 -2.3431648e-05 0.00023201528)
(0.00012798559 3.9219443e-06 4.5935223e-05)
(0.0008705696 -9.6965848e-05 0.00047658525)
(-4.7165976e-05 -5.4712648e-05 -4.5753485e-06)
(0.000782674 6.1117174e-05 0.00021745395)
(0.00012346814 7.1952225e-06 3.8296975e-05)
(0.00064348463 -3.6769239e-05 0.00022251689)
(0.00079682124 6.3987039e-05 0.00021432621)
(0.00059820839 3.8138202e-05 0.0002421522)
(-0.00010223758 -4.7175529e-05 -3.514188e-05)
(0.00034587711 -2.4169668e-05 0.00014618105)
(1.5690371e-05 -8.9362042e-05 -3.0267561e-05)
(0.0003064388 -2.5028551e-05 0.00012239227)
(2.6945646e-05 -0.00011154005 -7.5022009e-05)
(0.00077074849 -3.1071068e-05 0.00023724303)
(0.00067387436 3.299037e-05 0.00024480083)
(1.8521934e-05 -7.736405e-05 -7.4889893e-05)
(0.00069743371 3.6984656e-06 0.0002271897)
(0.00062799303 4.115275e-05 0.00023799996)
(2.8013271e-06 -8.6396526e-05 -1.9248713e-05)
(1.3845577e-05 -0.00011182517 -3.6132615e-05)
(9.8228236e-06 -6.5192162e-05 -1.7634227e-05)
(1.8075416e-05 -0.00010197807 -1.9319158e-05)
(0.00077035704 2.053109e-05 0.00021525295)
(5.5071453e-05 -4.4137296e-05 -4.2657818e-05)
(0.00069621909 -7.3119188e-06 0.00020453084)
(0.00066547222 2.4980504e-05 0.00019599158)
(0.00066659974 8.4096352e-06 0.00022242698)
(2.3981946e-05 -0.00011234924 -8.0130338e-05)
(-5.5162293e-06 -6.773538e-05 9.195786e-06)
(3.7245108e-05 -0.00010255098 -2.9848522e-05)
(0.00012338605 3.1138822e-06 4.5618887e-05)
(0.00086986389 -0.00011171019 0.00027836565)
(1.7107e-05 -7.6628698e-05 3.9689608e-06)
(0.00015653032 -2.3090245e-05 6.83558e-05)
(4.1711383e-05 -0.00011709032 -6.0926437e-05)
(0.00012902696 -4.2835762e-06 5.3317686e-05)
(0.00044500814 1.2383741e-05 0.00026411148)
(0.0007815403 -1.9854934e-05 0.00024221827)
(3.0102139e-05 -5.9296457e-05 7.048572e-06)
(0.00028425107 -2.5432328e-05 0.00011919221)
(0.00032915953 8.1832891e-07 0.00014578268)
(-3.6174575e-05 -2.5771861e-05 -1.0524933e-06)
(0.00048633581 -8.497843e-06 0.00029588498)
(0.00078668746 -1.4601257e-05 0.00023400833)
(0.00068372121 -1.4139119e-05 0.00020236887)
(7.5154568e-06 -7.7098074e-05 -7.5943177e-05)
(4.5673752e-05 -0.00011540012 -2.9927005e-05)
(4.4195876e-05 -0.00012148649 -6.3156189e-05)
(0.00054682879 2.7815692e-05 0.00017501015)
(7.0237969e-05 -0.00013975842 -7.929421e-05)
(4.2575738e-05 -0.0001191312 -7.4656367e-05)
(0.00044898913 1.8204073e-05 0.00020434481)
(0.00080211437 -2.5131929e-05 0.00023075278)
(6.8174933e-05 -0.00010649362 -0.00011215224)
(5.3287332e-05 -8.3661379e-05 1.122794e-05)
(9.7930966e-05 2.0607171e-05 6.1896141e-05)
(7.7679814e-05 -0.00013024586 -9.6515779e-05)
(7.34248e-05 -0.00011310947 -3.5735582e-05)
(8.5241971e-05 -0.0001150167 -9.4140486e-05)
(5.7504378e-05 -8.6478887e-05 -0.0001030092)
(0.00015017179 -1.919773e-05 6.9951962e-05)
(0.00088122922 0.00011086573 0.00040664594)
(0.00086705728 -0.00012782375 0.00036986364)
(-4.7223657e-05 -2.5944648e-05 -4.5309476e-06)
(0.00019100001 -8.4547031e-06 9.4581016e-05)
(9.9602901e-05 -0.00012029051 -7.8012557e-05)
(6.5174625e-05 -8.6461823e-05 1.6721976e-05)
(8.9004687e-05 -0.00012122561 -4.5782693e-05)
(6.1155216e-05 -7.1969214e-05 1.2793236e-05)
(0.00010673939 -0.00010842399 -3.7702363e-05)
(0.00074162202 -5.8129843e-05 0.0002079466)
(0.00010428174 -9.7747767e-05 -1.0576838e-05)
(0.00055598407 -3.9209644e-05 0.0002153283)
(0.00077364331 5.8684137e-05 0.00021476724)
(5.5656661e-05 -1.2407785e-05 3.2911336e-06)
(0.00098640464 0.00013694269 0.00042390983)
(-0.00019379001 -3.0923118e-05 -9.0034702e-05)
(-0.00016773167 5.9998861e-05 -7.9021807e-05)
(-0.00021232527 -1.845937e-05 -0.00011054979)
(-0.00022049167 3.6800838e-05 -0.00011849286)
(5.6741415e-05 -1.3382755e-05 3.223262e-05)
(4.4480675e-05 -4.0657463e-05 -1.5878634e-05)
(0.00045063696 1.9397173e-05 0.00020195399)
(0.00011350332 -8.8558531e-05 4.4730223e-06)
(0.00013747113 -2.4080809e-05 6.741606e-05)
(-0.00027052119 2.2508784e-05 -0.0001325295)
(0.00038924018 -2.1783419e-05 0.00013687836)
(8.6709652e-05 -0.00010503183 -7.5871651e-05)
(6.2315163e-05 -6.4862918e-05 -0.00010330009)
(0.00012665252 -0.00010356991 -8.9091111e-05)
(0.00014968557 -0.00012061494 -5.3679954e-05)
(0.00081090052 4.2785371e-05 0.00048354778)
(0.0007713071 -5.5319007e-05 0.00045698795)
(-0.00016144527 -3.7364797e-05 -8.457627e-05)