/*--------------------------------*- C++ -*----------------------------------*\
  =========                 |
  \\      /  F ield         | OpenFOAM: The Open Source CFD Toolbox
   \\    /   O peration     | Website:  https://openfoam.org
    \\  /    A nd           | Version:  11
     \\/     M anipulation  |
\*---------------------------------------------------------------------------*/
FoamFile
{
    format      ascii;
    class       volVectorField;
    location    "10000";
    object      wallShearStress;
}
// * * * * * * * * * * * * * * * * * * * * * * * * * * * * * * * * * * * * * //

dimensions      [0 2 -2 0 0 0 0];

internalField   uniform (0 0 0);

boundaryField
{
    wall-fluid_domain
    {
        type            calculated;
        value           nonuniform List<vector> 
34505
(
(4.347093e-05 4.5998457e-06 4.7235321e-06)
(3.8578649e-05 -8.7913409e-06 1.8704404e-06)
(8.9622996e-05 1.9922622e-05 4.3506501e-05)
(4.1852434e-05 -1.0438286e-05 9.8684939e-07)
(5.705205e-05 1.5886924e-06 3.3506801e-06)
(8.714673e-05 1.7972222e-05 6.6879418e-05)
(3.2224984e-05 -7.1496269e-06 3.110204e-06)
(4.2698413e-05 1.1333599e-05 5.7790063e-06)
(5.8306178e-05 -6.0974361e-06 3.3633698e-06)
(2.5549027e-06 4.1166138e-06 -9.1642636e-08)
(8.433187e-05 1.8464087e-05 6.6729009e-05)
(9.020227e-05 -2.0012596e-05 4.3944834e-05)
(4.6308217e-05 6.4288707e-06 4.643805e-06)
(5.667641e-05 3.7968942e-06 3.1603547e-06)
(5.4476816e-05 -3.1102801e-06 3.1013354e-06)
(4.1853524e-05 -3.6599923e-06 1.4219577e-07)
(6.6554459e-05 3.5556476e-06 8.6592025e-06)
(6.3752807e-05 4.9901242e-06 4.5602031e-06)
(6.2454006e-05 -3.7872493e-06 9.2301315e-06)
(7.1894934e-05 -8.7637315e-06 1.555237e-05)
(4.3429893e-05 3.0865552e-06 3.8909643e-06)
(5.5937586e-05 -6.0703851e-06 3.8570042e-06)
(7.0389505e-05 9.8297556e-06 1.6925766e-05)
(3.5243249e-05 -1.1243037e-05 5.0943675e-06)
(4.5865984e-05 -4.9391789e-06 2.705425e-06)
(2.7729651e-05 -8.2180542e-06 1.1050394e-06)
(2.5148091e-05 -1.0971711e-05 2.7585628e-06)
(-2.9369792e-06 -2.5895617e-07 -3.0968901e-06)
(4.0811593e-05 -7.4385242e-06 2.5348088e-06)
(-1.6254748e-06 -4.3887586e-07 -1.8679065e-06)
(9.3204025e-05 1.5280797e-05 2.9746718e-05)
(4.95738e-05 3.7293212e-07 4.8166942e-06)
(2.4218506e-05 6.5673408e-06 3.2205542e-06)
(8.2151724e-05 -1.4170447e-05 2.6612378e-05)
(2.8103664e-05 8.8345673e-06 5.4525343e-06)
(-2.5318892e-06 -1.1531818e-07 -1.9679636e-06)
(5.7169319e-05 -3.7929812e-06 1.7426263e-06)
(8.7890691e-05 2.3847161e-05 5.2144008e-05)
(8.6070567e-05 2.5921168e-05 5.6607945e-05)
(6.1251535e-05 3.1249029e-06 2.8247628e-06)
(2.5622235e-05 7.5082987e-06 3.3302314e-06)
(4.7396466e-05 -5.8713053e-07 9.5251728e-06)
(-3.0067982e-06 2.2902026e-08 -2.5488336e-06)
(-1.0879006e-06 -9.0246018e-07 -1.5177811e-06)
(-9.9396396e-08 -1.5699165e-06 -1.3549308e-06)
(6.0754955e-05 2.379554e-06 2.4330757e-06)
(-1.542615e-06 1.6035959e-07 -1.7626121e-06)
(3.8527227e-05 1.3887362e-05 5.138941e-06)
(6.579473e-05 9.3926643e-07 1.2316508e-05)
(7.6435595e-05 -2.0686685e-05 4.5062609e-05)
(4.0898284e-05 6.984958e-06 5.0393567e-06)
(-3.3456296e-06 2.9588291e-07 -2.4455158e-06)
(7.6902821e-05 -2.0097896e-05 4.9456006e-05)
(5.0664941e-05 -1.3294419e-06 4.6326849e-06)
(5.3309819e-05 1.398002e-07 3.2421331e-06)
(5.828728e-05 7.5641311e-07 3.1373997e-06)
(3.5651397e-05 9.997906e-06 3.4903269e-06)
(4.6954474e-05 2.6182086e-06 4.4194168e-06)
(-2.338054e-06 -6.0359899e-08 -1.9268014e-06)
(4.557323e-05 1.0066792e-05 4.553398e-06)
(-2.6479024e-06 1.047635e-08 -2.8433144e-06)
(5.1470473e-05 7.1741749e-06 4.4741023e-06)
(6.3290811e-05 5.2871896e-06 3.6959702e-06)
(-1.1625112e-06 5.8743567e-07 -1.3619611e-06)
(2.6655959e-05 9.0960428e-06 3.8498809e-06)
(-2.7613867e-06 -4.5736126e-07 -2.6637543e-06)
(3.7115249e-05 8.3809133e-06 3.2179362e-06)
(2.5703841e-05 1.120376e-05 4.4963444e-06)
(3.9375458e-05 9.6255153e-06 4.8356921e-06)
(8.8765435e-05 2.2903163e-05 3.1286914e-05)
(8.0327725e-05 -1.4213607e-05 2.9116155e-05)
(7.2811964e-05 1.7589927e-05 3.1318398e-05)
(9.1959093e-05 -1.888589e-05 3.6470254e-05)
(6.9903481e-05 -5.7129027e-06 1.3749526e-05)
(6.9951227e-05 1.9540284e-06 1.4886493e-05)
(2.0313564e-05 -7.2205431e-06 -8.9106044e-07)
(7.4248748e-05 1.1942073e-05 2.2726844e-05)
(-3.4329604e-07 1.0957361e-06 -1.5519265e-06)
(6.4803852e-05 -1.0132572e-05 2.2002028e-05)
(1.6779172e-05 -1.3170889e-05 1.3317139e-06)
(6.5288271e-05 -3.7971653e-06 6.6897655e-06)
(1.581772e-05 -8.096973e-06 4.0767715e-07)
(9.5420208e-06 -8.5961449e-06 1.3779985e-06)
(-4.0347647e-06 -2.080013e-07 -2.4312288e-06)
(8.769128e-05 2.2227558e-05 4.4151332e-05)
(5.6531915e-05 -1.042781e-06 6.0307766e-06)
(6.718143e-05 -1.5647696e-05 5.4522799e-05)
(9.9105163e-05 -1.7998426e-05 7.283067e-05)
(2.2978467e-05 -7.2469961e-06 5.0918853e-07)
(8.6216546e-05 -2.0379309e-05 4.2626489e-05)
(1.6579061e-05 1.1125233e-05 2.2916687e-06)
(-2.4092691e-06 -8.6534142e-07 -1.3888809e-06)
(7.0497731e-05 9.514545e-06 2.005725e-05)
(6.2425829e-05 -8.8607148e-06 1.895721e-05)
(1.6483168e-05 7.6339521e-06 1.2677323e-06)
(1.9187976e-05 5.0800532e-06 1.4239284e-06)
(6.5818212e-05 1.6436395e-05 2.4340297e-05)
(1.1242334e-05 9.4600089e-06 2.2918474e-06)
(7.5000617e-05 1.5481627e-05 3.044081e-05)
(-1.1472329e-06 -1.0466646e-06 -1.6486485e-06)
(-2.3368213e-06 -4.1110069e-08 -2.4856904e-06)
(8.161858e-05 2.0031753e-05 3.8445205e-05)
(-6.1547169e-07 -9.5032058e-07 -2.1608356e-06)
(-1.9047232e-06 -4.6332798e-07 -2.1762284e-06)
(7.7206715e-05 -1.5467545e-05 2.9010328e-05)
(7.6012966e-05 -1.2047043e-05 2.9281988e-05)
(9.0613204e-05 -2.3278271e-05 4.1134038e-05)
(2.2236012e-05 7.9042586e-06 2.5083923e-06)
(-2.2443126e-06 6.2237101e-07 -1.3219509e-06)
(2.0721894e-05 -1.0021112e-05 1.5227885e-07)
(-2.2271197e-06 -1.0607532e-07 -2.3468849e-06)
(-1.2752848e-06 6.6798991e-07 -1.4214103e-06)
(-1.5486591e-06 7.8437406e-07 -1.2093844e-06)
(-1.9435817e-06 2.6614817e-07 -2.144399e-06)
(1.8644432e-05 -1.0702899e-05 2.5846964e-06)
(1.9003127e-05 8.2211229e-06 2.6240541e-06)
(6.7950459e-05 1.2318277e-05 2.4005027e-05)
(2.0530938e-05 1.0329106e-05 3.7789566e-06)
(8.7672545e-05 -1.0209331e-05 2.8940689e-05)
(-9.4859516e-07 -1.1125071e-06 -2.0979181e-06)
(7.4212689e-05 1.343948e-05 2.8994887e-05)
(7.3593382e-05 9.013129e-06 2.4636452e-05)
(-2.8425154e-06 -7.5331424e-07 -1.8652266e-06)
(-8.9081983e-07 -1.4861979e-06 -1.2764694e-06)
(8.617588e-05 -1.2783573e-05 2.7452852e-05)
(7.3331461e-05 1.5355659e-05 2.7734983e-05)
(-2.8048175e-06 -1.8273602e-07 -2.7437082e-06)
(7.3660238e-05 -1.4496749e-05 2.9673034e-05)
(6.0524648e-05 1.4598543e-05 3.1527082e-05)
(8.3349438e-05 -1.4573999e-05 2.9831927e-05)
(7.5384646e-05 -1.7434941e-05 3.3859164e-05)
(8.9880761e-06 -4.9765738e-06 5.0489749e-07)
(7.7053639e-05 1.8616725e-05 3.4175105e-05)
(-4.6400785e-06 -2.5368913e-07 -2.1004515e-06)
(-3.2872925e-06 5.9755644e-08 -2.9248341e-06)
(8.752873e-05 -1.3345641e-05 3.4154716e-05)
(-1.3151235e-06 -1.1056145e-06 -1.6540797e-06)
(-1.2961371e-06 -1.5170558e-06 -1.3453255e-06)
(9.9104782e-06 5.3008006e-06 1.4597578e-06)
(-3.3576078e-09 -1.7648293e-06 -1.5836939e-06)
(-2.3840037e-06 -5.1705708e-07 -2.3072479e-06)
(-2.9000884e-06 -2.1235006e-07 -2.9397383e-06)
(-2.7856206e-06 -5.2083898e-08 -2.4240422e-06)
(-1.0035991e-06 7.422693e-07 -1.8525453e-06)
(-2.9451196e-06 4.4184918e-07 -1.8833491e-06)
(-2.7348409e-06 7.3478552e-08 -3.4492787e-06)
(-8.867821e-07 1.0015348e-06 -1.2935213e-06)
(-3.6492688e-06 -2.9848094e-08 -2.8597842e-06)
(-3.5492419e-06 5.1037865e-08 -3.0016678e-06)
(-1.337545e-06 -1.065528e-06 -2.5111578e-06)
(-1.5348518e-07 -1.8766264e-06 -1.7943078e-06)
(-1.7920706e-06 -1.5272485e-06 -1.5676922e-06)
(-1.7623635e-06 -9.9824002e-07 -1.9442177e-06)
(-2.5857166e-06 -4.0458532e-07 -2.5298736e-06)
(-3.9762132e-07 -1.6036763e-06 -2.082492e-06)
(-2.1779781e-06 -8.8701513e-07 -2.0475331e-06)
(-9.90636e-07 -1.5269528e-06 -1.6412951e-06)
(-2.6567676e-06 -7.7419736e-07 -2.5821397e-06)
(-3.1454023e-07 -2.4357553e-06 -1.2532057e-06)
(-3.2793554e-06 -5.4807997e-07 -2.6161681e-06)
(-7.3231877e-07 -2.1339595e-06 -9.0290744e-07)
(-2.1109775e-06 -1.0939444e-06 -2.4076001e-06)
(-3.1497995e-06 -2.1730066e-07 -3.1181187e-06)
(-1.9343716e-06 -1.4129516e-06 -1.5088455e-06)
(-2.4769936e-06 -1.3122667e-06 -2.5681648e-06)
(-2.7372201e-06 -1.1694801e-07 -3.91404e-06)
(-3.835531e-06 -4.0258323e-07 -2.8790543e-06)
(9.0042681e-07 -3.0569038e-06 -1.1907057e-06)
(-3.4990767e-06 -8.4184818e-08 -3.414993e-06)
(-7.094707e-08 -1.8201209e-06 -1.6978412e-06)
(3.0097691e-07 -2.3936969e-06 -1.4884566e-06)
(-3.8881711e-06 -2.0542548e-07 -2.7438244e-06)
(-3.9972768e-06 -1.5021577e-08 -3.5690231e-06)
(-1.1934809e-06 1.2227369e-06 -1.2843457e-06)
(-1.74311e-06 6.8938548e-07 -1.8801766e-06)
(-3.461936e-06 -7.1877732e-08 -3.8504022e-06)
(-3.9777348e-06 2.67647e-08 -2.4405068e-06)
(-3.1377052e-06 -7.8005914e-08 -3.4092844e-06)
(-6.6085281e-07 1.4497535e-06 -1.3632121e-06)
(-3.8907637e-06 -2.4060638e-07 -3.1680987e-06)
(-3.9395224e-06 -3.5956455e-07 -3.0403063e-06)
(9.6260216e-05 -2.1240831e-05 8.5304492e-05)
(-4.4384431e-06 -1.9344317e-07 -3.534658e-06)
(1.3315709e-06 -3.1582061e-06 -5.8201185e-07)
(-2.9379295e-06 5.4505118e-07 -1.8857994e-06)
(9.4727723e-05 -1.8393025e-05 8.5918318e-05)
(-3.9423873e-06 7.8942337e-08 -3.8896776e-06)
(-4.475551e-06 -2.7678381e-07 -3.4557031e-06)
(-5.0416639e-06 -6.8596424e-08 -3.3189443e-06)
(-4.1949579e-06 1.4612021e-07 -4.195109e-06)
(-4.8612365e-06 -2.2158649e-07 -4.8248986e-06)
(-5.768823e-06 -1.5063673e-07 -3.478677e-06)
(-5.5773229e-06 -4.1870582e-07 -4.0470234e-06)
(-4.0625284e-06 -4.958155e-08 -4.2028953e-06)
(-5.6738002e-06 -4.042007e-08 -4.1925752e-06)
(9.19217e-07 2.2739248e-06 -9.9170434e-07)
(-4.1411552e-06 -2.4726667e-07 -5.2987036e-06)
(-4.6440291e-06 -3.6601371e-08 -3.8434703e-06)
(8.0438588e-05 1.782147e-05 7.4643023e-05)
(-4.2447867e-06 -8.8543508e-08 -3.9715828e-06)
(8.6844324e-05 1.6324131e-05 7.930209e-05)
(-3.9214074e-06 3.3351051e-08 -3.6206715e-06)
(-4.2437941e-06 2.9072293e-07 -3.8848038e-06)
(-4.1079154e-06 -3.5753007e-07 -3.5826681e-06)
(-3.5363488e-06 1.3802142e-07 -3.596944e-06)
(-2.2618411e-06 1.2375429e-06 -1.815885e-06)
(-4.7264496e-07 1.4268259e-06 -1.5348903e-06)
(-5.1631495e-06 2.3569411e-07 -4.1124489e-06)
(-1.5799088e-06 1.2068153e-06 -1.4454092e-06)
(1.2987143e-06 -1.961232e-06 -1.4951042e-06)
(-4.5260292e-06 1.2823218e-07 -4.1414906e-06)
(-3.3678359e-06 6.6143918e-07 -2.7638374e-06)
(-2.9635862e-06 6.1948669e-07 -2.2828005e-06)
(-2.3975938e-06 3.8293416e-07 -3.1891448e-06)
(-7.4824628e-07 1.5581387e-06 -1.6943233e-06)
(-3.3314716e-06 2.7425785e-07 -3.8479237e-06)
(-1.553416e-06 5.2364612e-07 -2.8041081e-06)
(-2.3052217e-06 1.0471973e-06 -1.7667795e-06)
(-3.9898845e-06 3.2452959e-07 -3.962867e-06)
(-2.5665295e-06 7.1266525e-07 -2.7525184e-06)
(-2.3774403e-07 2.182242e-06 -1.1232795e-06)
(-3.0386877e-06 1.0285502e-06 -2.8700989e-06)
(-5.2039217e-07 2.3482131e-06 -1.2744961e-06)
(-1.1357334e-06 1.3761325e-06 -2.232582e-06)
(-2.8662118e-06 1.1506946e-06 -3.1189391e-06)
(-4.4021881e-06 4.8842504e-07 -3.4953942e-06)
(-4.0767007e-06 5.3947174e-07 -4.2650243e-06)
(-1.716206e-07 2.3684535e-06 -9.2473416e-07)
(-1.7057133e-06 2.0333025e-06 -1.371964e-06)
(7.8268815e-08 2.4239805e-06 -1.4903446e-06)
(-4.0741398e-06 7.4568588e-07 -4.0622643e-06)
(-2.8784387e-06 1.5870194e-06 -2.3400543e-06)
(-4.3559376e-06 1.3592465e-06 -3.1352462e-06)
(-5.9881653e-06 2.5627923e-07 -4.9033017e-06)
(6.6871417e-08 1.7075534e-06 -8.235669e-07)
(-2.6599939e-06 1.4260697e-06 -3.6798452e-06)
(1.2102811e-05 -4.1531871e-07 8.3622709e-06)
(3.7845639e-05 -3.6106824e-06 3.6350353e-05)
(1.9931816e-05 -3.5694437e-07 1.698648e-05)
(1.9944409e-05 3.0451248e-06 1.3778389e-05)
(2.5650619e-05 -4.1969384e-06 2.0678673e-05)
(2.4132656e-05 -1.030826e-05 3.1184727e-06)
(6.5956588e-05 2.0033563e-05 5.0838731e-05)
(2.5368272e-05 -3.9242743e-06 2.4182692e-05)
(9.15368e-05 -2.774482e-05 6.5217998e-05)
(2.9143269e-05 -5.9123031e-06 2.7699725e-05)
(3.6682792e-05 -1.0715539e-06 3.2742469e-05)
(1.5854036e-05 -4.6886103e-07 9.9611165e-06)
(8.3500675e-05 1.9772705e-05 6.3346586e-05)
(2.7301412e-05 1.0147843e-05 4.6622861e-06)
(8.0441667e-05 2.0615164e-05 4.6501101e-05)
(3.435837e-05 -1.6207036e-06 2.9528193e-05)
(6.5420528e-05 2.3410504e-06 8.3817864e-06)
(6.6501667e-05 1.9944366e-05 4.8005352e-05)
(7.9537558e-05 -1.9382641e-05 4.4579065e-05)
(3.5651522e-05 -2.2337578e-06 3.0263404e-05)
(6.9697737e-05 2.3316893e-06 9.1691507e-06)
(2.0570384e-05 -8.9820868e-06 8.6108374e-07)
(0.00010194415 -2.2579255e-05 6.2263242e-05)
(2.4141079e-05 3.1551884e-06 1.9072234e-05)
(3.5275937e-05 -2.6114355e-06 3.6383008e-05)
(6.3732312e-06 1.6170514e-06 8.43188e-06)
(9.4323807e-05 1.967018e-05 4.7440615e-05)
(5.90469e-05 -4.6983649e-07 8.5052257e-06)
(6.463608e-05 -1.9370654e-06 8.6888317e-06)
(3.1377049e-05 1.3929473e-06 2.922334e-05)
(8.8741444e-05 -1.7449508e-05 4.3902351e-05)
(-3.8197238e-06 -2.9289269e-08 -2.1874256e-06)
(-7.5811747e-08 -1.7941429e-06 -1.5588992e-06)
(-2.2101082e-06 -1.5695679e-06 -1.9107587e-06)
(2.7485459e-05 2.2303374e-06 3.2250053e-05)
(1.0406902e-05 -3.0843935e-07 8.0397226e-06)
(4.4265521e-05 -1.5694339e-06 4.4186059e-05)
(2.1614194e-05 8.9661861e-06 2.9993926e-06)
(2.2762174e-05 1.2803092e-06 1.8800106e-05)
(1.6220658e-05 -1.9515462e-06 1.3950619e-05)
(-4.6046086e-06 -5.5136516e-07 -3.0964665e-06)
(5.4234663e-07 -3.1267749e-06 -4.0776236e-07)
(2.6265039e-05 -2.3764761e-06 2.1153891e-05)
(6.8365326e-05 -1.8626219e-05 5.2492945e-05)
(8.9258214e-06 -1.2978051e-06 8.9423858e-06)
(3.316086e-05 1.7535965e-06 3.1082905e-05)
(-4.8799251e-06 3.0735093e-07 -4.572154e-06)
(-3.5536695e-06 -9.4515167e-08 -1.9726193e-06)
(2.984882e-05 -1.3396824e-06 2.970232e-05)
(1.8144501e-08 -2.489845e-06 -1.2783592e-06)
(2.8311114e-05 4.3157056e-06 2.9578934e-05)
(1.0308751e-05 -2.6353558e-06 1.0335743e-05)
(6.8481458e-05 4.092033e-06 1.4794561e-05)
(6.0180401e-06 3.7556707e-07 4.6346575e-06)
(9.1595919e-05 -6.4567377e-06 9.3515553e-05)
(3.2623924e-05 9.0843285e-07 3.0277556e-05)
(9.1336336e-05 4.3649667e-06 9.2275498e-05)
(6.9723369e-05 8.9316746e-06 2.2308419e-05)
(3.6873748e-05 -2.4814219e-07 3.3806016e-05)
(1.294345e-06 -2.3029213e-06 -1.5759296e-06)
(3.6325566e-05 1.7401244e-07 3.2460654e-05)
(3.0450759e-05 -2.377031e-07 2.9323744e-05)
(7.957621e-05 -4.5220025e-06 2.3401514e-05)
(9.7742845e-07 -4.5689011e-06 -3.7146444e-07)
(8.62822e-05 1.0513738e-05 3.0425564e-05)
(7.6565028e-05 7.4139569e-06 2.037055e-05)
(2.7662807e-05 5.0901005e-06 2.5682761e-05)
(2.1512449e-05 7.2786384e-07 1.5584362e-05)
(-3.1634313e-06 -2.0671834e-07 -3.2855445e-06)
(7.3085419e-05 -6.5025063e-06 2.1353414e-05)
(1.8850958e-05 -4.4808693e-07 1.2512303e-05)
(-4.6382616e-06 4.9583491e-07 -4.9398545e-06)
(2.3020511e-05 3.5072135e-07 1.7292899e-05)
(-4.1303189e-06 6.1849732e-07 -4.3869093e-06)
(3.0987378e-05 2.3773525e-06 2.6532637e-05)
(1.8026075e-05 8.9166906e-07 1.4595851e-05)
(1.2698826e-05 1.2195397e-06 1.0858606e-05)
(4.7548874e-05 1.8313288e-06 3.672423e-05)
(8.3729134e-05 1.445819e-05 3.5649456e-05)
(1.8796872e-05 2.2501343e-07 1.5374061e-05)
(4.3948491e-06 9.6852506e-07 6.9473391e-06)
(3.1931304e-05 -5.6922218e-07 2.9648284e-05)
(2.0461399e-05 4.4950121e-07 1.3638315e-05)
(1.7966633e-05 -1.3017445e-06 1.0765734e-05)
(1.0272915e-05 1.1801418e-06 1.0142512e-05)
(3.0479015e-05 2.0908753e-06 2.6986815e-05)
(7.0916685e-05 -1.2934082e-06 1.3791944e-05)
(2.6062137e-05 2.5474036e-06 1.7091922e-05)
(3.5650556e-05 -2.7004908e-06 3.5806729e-05)
(3.8353579e-05 -3.065332e-06 3.1340293e-05)
(2.8522942e-05 -2.105381e-06 2.5658131e-05)
(1.7570234e-05 1.9591914e-06 1.3835239e-05)
(3.4006542e-05 -1.8820488e-06 3.0287591e-05)
(1.3749604e-05 -8.2564766e-08 9.2006901e-06)
(3.3503628e-05 -1.4311615e-06 3.0678234e-05)
(2.7283199e-05 5.3095077e-07 2.3051731e-05)
(7.1792337e-06 7.3234094e-07 5.5578257e-06)
(-3.3126526e-06 -1.295543e-07 -2.9941048e-06)
(2.9176059e-05 -1.1195553e-06 2.4761085e-05)
(8.4217712e-06 4.0131311e-07 4.9318524e-06)
(2.9297338e-05 -3.5971668e-06 2.890654e-05)
(2.3793787e-05 -9.5820563e-07 1.771561e-05)
(4.1439476e-05 -4.9158437e-06 4.1942085e-05)
(3.3852924e-05 2.7627752e-06 3.1303943e-05)
(-3.2698737e-07 1.9308809e-06 -2.4490254e-06)
(-1.7643392e-06 1.6817429e-06 -2.4882808e-06)
(1.380683e-05 -1.0076895e-07 1.014295e-05)
(7.8557914e-05 -1.0730534e-05 2.6266455e-05)
(3.6241143e-07 3.2843772e-06 -8.1138398e-07)
(1.2727203e-05 -2.1451033e-06 1.1748615e-05)
(1.4304986e-05 3.4349918e-06 1.2533425e-05)
(-1.6702571e-07 1.8945452e-06 -9.180675e-07)
(4.6732626e-06 3.1965367e-07 5.52335e-06)
(1.1216075e-05 -1.1205182e-06 9.0223657e-06)
(3.4562973e-05 1.2291229e-06 2.8298724e-05)
(4.1270374e-05 3.4171421e-07 4.034467e-05)
(8.3564145e-05 -1.8947805e-05 3.4326547e-05)
(2.855467e-05 -4.9773954e-06 2.9613459e-05)
(-4.7693186e-06 2.1913743e-07 -2.4300815e-06)
(8.569025e-08 2.17975e-06 -7.5110803e-07)
(2.7447407e-05 2.0907465e-06 3.1879392e-05)
(3.1437213e-05 -2.2275691e-07 2.5465379e-05)
(8.7320863e-06 -5.0153223e-07 6.6595061e-06)
(9.0227934e-05 7.6999139e-06 9.3250847e-05)
(9.5457662e-05 -6.4571843e-06 9.5841698e-05)
(2.5904938e-05 3.048429e-06 2.8772792e-05)
(2.4776724e-05 -1.5862621e-06 2.0541404e-05)
(1.1079314e-06 3.0044726e-06 -6.9889087e-07)
(3.973233e-05 1.8970592e-06 3.5844602e-05)
(9.8969175e-06 -1.6518128e-06 9.355691e-06)
(1.9263994e-05 -4.3696759e-06 1.6488168e-05)
(3.0501144e-05 1.1672126e-06 2.9945181e-05)
(1.0478304e-05 -4.6025705e-08 7.2639876e-06)
(2.4751437e-05 -1.6355203e-06 1.8372635e-05)
(3.7385437e-05 8.4070385e-07 3.9631506e-05)
(8.126367e-06 -3.7958125e-07 7.9755021e-06)
(2.6299811e-05 3.3724356e-06 2.8931373e-05)
(9.3908759e-06 2.2410647e-06 1.2247723e-05)
(3.5146261e-05 6.7709307e-07 4.1052764e-05)
(4.1194336e-07 -2.4012273e-06 -9.6368427e-07)
(-1.4015314e-06 -1.6044863e-06 -1.4468334e-06)
(-3.3802229e-06 -9.1369185e-07 -2.4324363e-06)
(3.0006856e-05 -4.0820301e-06 3.0605968e-05)
(3.8810171e-05 1.3330665e-07 3.1216859e-05)
(-3.9640612e-06 -7.1759698e-07 -3.3498379e-06)
(3.4867404e-05 4.8280145e-06 3.0044525e-05)
(2.8832197e-05 2.9128998e-06 2.4413068e-05)
(4.9602211e-07 -2.684221e-06 2.649623e-07)
(4.3169028e-06 -5.344147e-07 6.1949323e-06)
(4.070766e-06 2.0602982e-07 4.0554496e-06)
(1.1932429e-05 -4.6617705e-07 8.5325354e-06)
(5.4938223e-06 -2.8861189e-08 3.2594364e-06)
(3.075783e-05 -5.4005201e-06 2.8104813e-05)
(3.4934819e-06 -3.2177669e-06 -1.0888681e-06)
(4.4925494e-06 5.2046585e-07 5.6912422e-06)
(2.1232645e-05 1.0631601e-06 1.5384542e-05)
(4.4647701e-06 2.5246617e-07 3.4981484e-06)
(3.0769355e-05 4.6943508e-07 3.1331177e-05)
(3.2342065e-05 6.7175256e-07 3.2631526e-05)
(1.0595424e-05 1.5256739e-06 1.0881011e-05)
(3.6581624e-05 2.4308253e-06 3.7153091e-05)
(6.1853514e-06 5.3262685e-08 4.6390845e-06)
(4.5275513e-05 1.2751753e-06 4.0575906e-05)
(2.6143239e-05 1.0664633e-06 3.0718727e-05)
(4.5695077e-06 3.2264234e-08 3.1068807e-06)
(6.4662328e-06 -1.6679447e-06 7.0748436e-06)
(7.0981979e-06 -1.4541451e-06 7.3421028e-06)
(1.9388538e-05 1.6519241e-06 1.0644051e-05)
(2.7718638e-05 1.292548e-06 3.0296232e-05)
(6.0235566e-06 2.9289104e-09 3.5215319e-06)
(3.4896044e-05 9.5889927e-09 2.5827769e-05)
(8.7290528e-06 7.3315141e-07 6.5682453e-06)
(-6.9773883e-06 -2.9222058e-07 -4.3121211e-06)
(2.2055509e-06 -3.9103215e-06 -6.5200494e-07)
(2.287054e-06 3.0686339e-06 -2.4275445e-07)
(2.6405929e-05 3.7422863e-06 1.8121091e-05)
(8.9460856e-05 2.185637e-06 9.1138596e-05)
(8.7735047e-05 -1.5538276e-06 9.0745225e-05)
(3.3201409e-06 -4.6156525e-06 -4.4005577e-07)
(8.0288484e-05 2.5027456e-05 5.1818206e-05)
(3.221945e-05 1.5441232e-06 2.6209779e-05)
(8.2426462e-05 2.0781245e-05 5.7086258e-05)
(1.7122029e-06 -3.0736461e-06 -7.346148e-07)
(2.0029048e-05 -5.3004406e-06 1.5712971e-05)
(7.8208854e-05 -2.0259206e-05 4.7765663e-05)
(9.5446114e-05 -2.4171419e-05 5.962763e-05)
(2.3785505e-05 3.2852629e-06 1.8572106e-05)
(-5.7303287e-07 3.1186981e-06 -1.244065e-06)
(1.4637082e-06 3.2894215e-06 -1.3753135e-06)
(5.6233571e-05 5.4857372e-06 4.4651848e-06)
(2.622375e-05 -4.2571516e-06 2.2363513e-05)
(1.8154303e-06 3.2300528e-06 -6.3775513e-07)
(4.3157353e-05 8.3119196e-06 3.4028882e-06)
(-5.0816345e-06 -4.2859446e-07 -5.6262968e-06)
(3.3801968e-05 1.096416e-05 5.8094684e-06)
(8.4508844e-05 4.0181155e-06 2.4650272e-05)
(6.3976755e-05 1.3941553e-06 1.2310749e-05)
(2.5139724e-06 3.2019443e-06 -5.8591986e-07)
(8.1092856e-05 9.3104625e-06 2.5827568e-05)
(8.3631253e-05 1.6606231e-05 3.2964942e-05)
(2.5220164e-06 2.6880955e-06 -1.2538128e-06)
(-5.3938654e-06 5.3759097e-07 -4.9883988e-06)
(5.9438073e-05 3.0657749e-06 6.4495475e-06)
(-1.4196554e-06 -1.7995583e-06 -1.3778194e-06)
(7.151139e-05 6.0815313e-06 1.7630199e-05)
(-2.3372807e-06 -1.9267355e-06 -1.7685002e-06)
(6.9059419e-07 -2.7729638e-06 -8.8102601e-07)
(-2.2675164e-06 -1.2337202e-06 -2.4318874e-06)
(8.0970492e-07 -2.0686639e-06 -1.3223895e-06)
(-5.2078853e-06 4.3926065e-07 -5.1150338e-06)
(5.0434441e-05 4.0458296e-07 9.7446106e-06)
(6.4259605e-05 1.5247817e-06 8.7457472e-06)
(-6.3173577e-06 5.7733184e-07 -5.7119754e-06)
(6.8707632e-05 -2.4842427e-06 7.7770654e-06)
(-4.4117821e-06 -2.8909431e-08 -4.0630794e-06)
(-1.9300448e-06 -1.3001688e-06 -1.5409255e-06)
(-8.1093302e-08 -3.1243041e-06 -1.2882082e-06)
(-1.8568448e-07 -1.9485449e-06 -1.1417989e-06)
(-2.9819044e-06 -1.3064653e-06 -2.2595875e-06)
(-3.6666471e-06 -4.9649449e-07 -4.0401015e-06)
(1.2332723e-06 -3.2193524e-06 -6.8951309e-07)
(-1.1946975e-06 -1.8884073e-06 -1.4009557e-06)
(-4.4559863e-06 -4.7641365e-07 -3.9966542e-06)
(7.7565243e-05 -7.2305555e-06 2.2018126e-05)
(9.2188416e-07 -3.5915566e-06 2.5608978e-07)
(-3.1512586e-06 -9.5437684e-07 -3.1698716e-06)
(-4.2683199e-06 -6.8304779e-07 -3.1974871e-06)
(-2.5385789e-06 -1.8801739e-06 -2.3651159e-06)
(1.0965876e-06 -2.5071261e-06 -1.129902e-06)
(-5.7014819e-06 -3.5493134e-07 -5.1197132e-06)
(2.9108607e-06 -4.1916959e-06 -2.897372e-07)
(7.8155924e-07 -3.5669564e-06 -8.2717667e-07)
(6.9718491e-05 -6.7814306e-06 1.6772388e-05)
(-4.8483296e-06 -3.5878458e-07 -4.7917465e-06)
(6.549798e-05 7.1708114e-07 8.5813301e-06)
(-4.2528839e-06 -2.5327611e-07 -4.6774747e-06)
(-5.5871826e-06 4.7883118e-07 -5.4610138e-06)
(-5.4463511e-06 3.0495137e-07 -5.5258064e-06)
(6.9545041e-05 -4.3056575e-06 1.1869397e-05)
(7.6098377e-05 -9.9834139e-06 2.3396586e-05)
(3.0757349e-06 -3.4696327e-06 -4.7753644e-07)
(7.8859594e-05 -1.1907342e-05 2.8892635e-05)
(-8.116025e-06 6.5955227e-08 -5.2260192e-06)
(3.2511274e-06 -4.6086656e-06 -1.8252768e-07)
(3.358139e-06 -5.1738489e-06 -1.3963374e-07)
(2.7455439e-07 3.215652e-06 -1.0242945e-06)
(3.8508275e-06 -4.7244941e-06 -9.3602841e-08)
(4.2239302e-06 -6.3452092e-06 1.0435617e-06)
(4.9177103e-06 -5.7455813e-06 1.7676013e-07)
(5.6205448e-06 -4.5637542e-06 -2.6719132e-07)
(-4.2983298e-06 -1.1118643e-06 -3.4818851e-06)
(7.5660059e-06 -7.684468e-06 1.04387e-06)
(4.7650507e-06 -5.0157054e-06 8.4201665e-07)
(-6.471321e-06 -8.8309198e-07 -3.9899095e-06)
(2.8440606e-06 -3.5105293e-06 -7.1443538e-07)
(8.5452783e-06 -5.4786058e-06 -1.1280192e-07)
(7.3587074e-06 -5.8246098e-06 -1.6409444e-07)
(9.8920842e-06 -7.4466965e-06 6.9435091e-07)
(4.5195971e-06 -3.685531e-06 -6.47127e-07)
(2.09952e-06 4.2862639e-06 -5.0955412e-07)
(9.9155755e-06 -6.5189635e-06 1.4042566e-06)
(3.946095e-06 4.4499947e-06 -9.9671726e-07)
(-7.0070744e-06 -7.7837245e-08 -4.6341858e-06)
(-6.4229675e-06 4.7624432e-07 -5.7817366e-06)
(4.4826488e-06 5.018968e-06 -1.401936e-07)
(4.2469948e-06 3.8178677e-06 -1.2099461e-08)
(3.8176578e-06 6.1494532e-06 4.7240244e-07)
(6.5450824e-06 6.0226628e-06 8.9076112e-07)
(6.6197712e-06 7.4088817e-06 1.2559217e-06)
(2.429738e-06 4.6154508e-06 4.5003661e-08)
(7.7148967e-06 4.4680786e-06 3.4913301e-07)
(4.1686133e-06 5.4305052e-06 1.2973172e-06)
(8.7449138e-06 5.9875592e-06 1.3377321e-06)
(6.3211724e-06 4.775808e-06 -4.2019156e-08)
(9.8775392e-06 5.3012162e-06 -8.2340714e-08)
(7.780233e-05 4.8171112e-06 2.1014188e-05)
(6.6407242e-05 5.5289551e-06 1.6438665e-05)
(7.1618633e-05 2.287647e-06 1.7714784e-05)
(7.4072302e-05 5.7928161e-06 2.4382342e-05)
(6.832397e-05 5.280591e-06 2.0152276e-05)
(7.2136217e-05 2.1377202e-06 1.529214e-05)
(7.187904e-05 -3.2638393e-06 1.7157244e-05)
(6.0541424e-05 7.3055824e-07 1.3629028e-05)
(6.9082503e-05 2.6977356e-06 2.1896578e-05)
(6.7169587e-05 -2.3992981e-07 1.5901358e-05)
(7.7313909e-05 4.4583314e-06 2.3586663e-05)
(6.5946267e-05 2.6557323e-06 1.7418065e-05)
(8.9774816e-05 1.0994063e-05 3.3711356e-05)
(-4.1582735e-07 -3.5028851e-06 -6.6630218e-07)
(-7.4280231e-06 2.4506463e-07 -4.5756245e-06)
(3.0795428e-05 1.049696e-05 4.1333677e-06)
(-3.0539434e-06 -2.3875968e-06 -2.3161181e-06)
(8.6635974e-05 4.5097507e-06 2.8109774e-05)
(-6.3148641e-06 6.4305713e-07 -6.1042012e-06)
(6.2184361e-05 -5.138547e-06 1.3475738e-05)
(6.2461532e-05 -6.1555884e-06 1.544342e-05)
(-5.5839379e-06 4.383995e-08 -6.2428129e-06)
(7.0446457e-05 8.7553086e-07 1.3273132e-05)
(5.9029906e-05 -2.5171101e-06 1.3149289e-05)
(5.8808194e-05 -2.9678114e-06 1.4028976e-05)
(6.3667264e-05 -1.5060439e-06 1.6814305e-05)
(7.3564475e-05 4.8937285e-06 2.1594845e-05)
(8.35565e-05 8.4257827e-06 2.7430603e-05)
(2.0376016e-06 -4.0190083e-06 -4.1682978e-07)
(5.3273575e-05 -1.818202e-06 1.3853885e-05)
(6.1757549e-05 7.1333013e-07 1.8364602e-05)
(8.8357466e-05 1.5520448e-05 3.6786548e-05)
(-6.1132273e-06 4.8078107e-08 -6.2937436e-06)
(-7.5552755e-06 5.8011042e-07 -6.1232671e-06)
(7.0560781e-05 -1.6569678e-06 1.883417e-05)
(-3.9164442e-06 -9.9892892e-07 -4.1913391e-06)
(6.8309749e-05 -2.691792e-06 1.6185605e-05)
(6.0655523e-05 1.098577e-06 8.1478149e-06)
(3.9378062e-05 1.5862456e-06 3.7609731e-05)
(-6.7259497e-06 -1.0542277e-07 -5.8692479e-06)
(7.0101299e-05 -2.3915083e-06 1.7596446e-05)
(8.0696666e-05 -6.2703564e-06 2.4320807e-05)
(6.781188e-05 -6.0053943e-06 1.8844565e-05)
(6.6325496e-05 -2.1453471e-06 1.343221e-05)
(6.4549671e-05 -3.1656784e-06 1.4888998e-05)
(6.697719e-05 1.8485321e-06 1.3797953e-05)
(7.3417747e-05 -2.4067783e-06 2.0176488e-05)
(-5.6495541e-06 -2.3278312e-07 -5.9255439e-06)
(5.4014278e-05 4.4272332e-07 1.5955404e-05)
(7.0621519e-05 6.2293436e-06 1.7776471e-05)
(6.9895363e-05 -6.3134261e-06 2.1270804e-05)
(6.5087388e-05 2.3150339e-06 1.2475253e-05)
(5.1945314e-05 5.8184642e-07 1.2287391e-05)
(6.4413384e-05 -5.6028864e-08 1.2676498e-05)
(6.3055389e-05 4.340864e-06 1.1402568e-05)
(6.0255585e-05 4.5024417e-06 1.5841524e-05)
(8.0076759e-05 -9.7748786e-06 2.8415292e-05)
(6.6236275e-05 1.3494332e-06 1.6574417e-05)
(3.3875091e-05 -4.6298463e-06 3.1748094e-05)
(6.5927182e-05 5.278139e-06 1.023894e-05)
(7.8546434e-05 -1.1501058e-05 2.6484667e-05)
(6.4428503e-05 8.6044396e-06 1.7001336e-05)
(5.8343398e-05 4.3247109e-06 1.106962e-05)
(6.2785978e-05 -2.9165463e-06 1.9273426e-05)
(6.186211e-05 1.0693631e-05 1.2063554e-05)
(3.227213e-07 -2.4546053e-06 -2.0758319e-06)
(3.018871e-06 -3.4981115e-06 -1.1119401e-06)
(6.4604573e-05 -1.0861456e-06 1.1840196e-05)
(5.1523578e-05 -2.0319005e-06 4.0406942e-05)
(6.2847278e-05 -2.4065829e-06 1.759068e-05)
(7.7606053e-05 8.5618086e-06 2.8433514e-05)
(7.0649789e-05 -4.8808786e-06 2.2942145e-05)
(5.6498791e-05 3.800608e-06 1.1558135e-05)
(-2.5118667e-06 -1.8623837e-06 -3.2628659e-06)
(5.7196976e-05 6.1038417e-06 1.0573419e-05)
(6.0258995e-05 2.8951994e-06 1.5074049e-05)
(7.7881993e-05 9.7465625e-06 3.1199587e-05)
(2.7147236e-06 -5.1046417e-06 -6.3514033e-08)
(6.0191877e-05 1.2875108e-06 1.7109692e-05)
(5.6233071e-05 7.3821645e-06 1.1097021e-05)
(5.1017993e-05 7.5856019e-06 1.0197677e-05)
(6.088091e-05 4.6605066e-06 1.6188756e-05)
(5.5685245e-05 3.6432494e-06 1.2542796e-05)
(5.6883474e-05 4.7225827e-06 9.156356e-06)
(3.5838771e-05 -1.3428749e-06 2.9753789e-05)
(-5.6721075e-06 1.3588499e-07 -7.5891987e-06)
(5.3825899e-05 1.3289817e-05 1.2280711e-05)
(6.9460588e-05 -1.437117e-06 2.3102052e-05)
(-7.663966e-06 2.5197067e-07 -5.7831247e-06)
(5.8651312e-05 5.9620217e-06 1.1077253e-05)
(5.2309887e-05 1.0753767e-05 1.0068221e-05)
(5.2960888e-05 6.0928906e-06 1.1744663e-05)
(6.1956405e-05 -2.7369272e-06 1.8768721e-05)
(5.684681e-05 1.9670312e-06 1.4654631e-05)
(4.7059376e-05 7.8364959e-06 1.0910611e-05)
(7.6608512e-05 -1.220721e-05 2.9766884e-05)
(5.4749763e-05 1.249022e-05 1.4071394e-05)
(4.5872641e-05 7.6360286e-06 4.3520157e-06)
(5.2348293e-05 3.4030647e-06 1.3963864e-05)
(4.7491247e-05 7.2348934e-06 7.6380864e-06)
(6.7229489e-05 -5.4822087e-06 2.1917404e-05)
(4.4152969e-05 7.6582607e-06 8.2727185e-06)
(4.4885191e-05 1.1143614e-05 5.698554e-06)
(7.8240379e-05 -4.0885001e-06 2.631758e-05)
(5.5145033e-05 1.3595268e-07 1.5196206e-05)
(4.2503386e-05 1.4663862e-05 6.2280873e-06)
(5.610995e-05 4.4248582e-07 1.8710152e-05)
(7.4079537e-05 -6.7797916e-06 2.5107836e-05)
(5.7399188e-05 -5.4578083e-06 2.0842633e-05)
(4.5858103e-05 9.4697852e-06 9.5078566e-06)
(7.4350851e-05 4.3119299e-06 2.4870653e-05)
(4.8655146e-05 9.7670993e-06 8.9795877e-06)
(4.639254e-05 8.7744437e-06 7.4717071e-06)
(-7.244339e-06 7.6651828e-07 -6.9481083e-06)
(3.1842642e-05 6.9147793e-06 6.0283491e-06)
(-4.5994132e-06 -1.3241516e-06 -4.326525e-06)
(-7.7854384e-06 3.581989e-07 -6.627012e-06)
(8.4166454e-05 -9.5145785e-06 3.2239206e-05)
(4.434473e-05 1.5651433e-05 9.697524e-06)
(4.5074743e-05 1.0377115e-05 8.0181954e-06)
(-6.8682509e-06 2.4691318e-07 -6.9360166e-06)
(-7.4446741e-06 -7.6885317e-07 -4.9228952e-06)
(-2.9540285e-07 -4.1687242e-06 -1.5617151e-06)
(7.9827352e-05 3.7857774e-06 2.8572252e-05)
(2.0947044e-06 -3.8774699e-06 -7.2013609e-07)
(7.6530698e-07 -3.6998545e-06 -8.4661345e-07)
(-5.6519465e-07 -2.9463358e-06 -1.9979437e-06)
(-3.3006655e-06 -2.0729066e-06 -2.3908612e-06)
(4.8469636e-05 5.4060622e-06 8.2985505e-06)
(-2.1347555e-06 -2.8345859e-06 -2.1358462e-06)
(1.9236636e-06 -3.3604885e-06 -1.906134e-06)
(-6.6036372e-06 3.477992e-08 -5.4784287e-06)
(-8.8376198e-07 -3.752258e-06 -1.2029141e-06)
(1.1298942e-05 -6.4142151e-06 -8.0590114e-07)
(-4.6466341e-06 -2.0235348e-06 -3.012593e-06)
(-2.3150383e-06 -1.8483664e-06 -3.1350039e-06)
(4.5555798e-05 6.7141384e-06 6.9318924e-06)
(3.349745e-06 -4.9718959e-06 -9.347594e-08)
(1.1258295e-05 -6.2877703e-06 -8.3798792e-08)
(1.0756663e-05 5.4965679e-06 9.0746412e-08)