/*--------------------------------*- C++ -*----------------------------------*\
  =========                 |
  \\      /  F ield         | OpenFOAM: The Open Source CFD Toolbox
   \\    /   O peration     | Website:  https://openfoam.org
    \\  /    A nd           | Version:  11
     \\/     M anipulation  |
\*---------------------------------------------------------------------------*/
FoamFile
{
    format      ascii;
    class       volVectorField;
    location    "10000";
    object      wallShearStress;
}
// * * * * * * * * * * * * * * * * * * * * * * * * * * * * * * * * * * * * * //

dimensions      [0 2 -2 0 0 0 0];

internalField   uniform (0 0 0);

boundaryField
{
    wall-fluid_domain
    {
        type            calculated;
        value           nonuniform List<vector> 
33501
(
(0.00015564413 3.422695e-05 0.00022608663)
(7.6794553e-05 -6.6792609e-07 0.00011015087)
(0.00010980968 3.0031533e-06 0.00018235758)
(6.6150901e-05 -5.9180072e-06 7.6999412e-05)
(3.2165754e-05 2.5695606e-06 5.1277418e-05)
(7.7858891e-05 -2.619692e-06 0.00011954826)
(8.7261262e-05 -7.5136964e-07 0.00011382458)
(7.4373844e-05 9.2228026e-06 0.00012133434)
(9.9302944e-05 -2.2391198e-05 0.00014108537)
(7.7095785e-06 5.8605044e-06 4.0356493e-06)
(8.2396835e-05 -1.4008965e-05 0.00010649489)
(0.00010921921 1.1551672e-05 0.00016095912)
(0.00012586718 -2.5381495e-05 0.00019810097)
(9.934838e-05 1.0904976e-05 0.00016118404)
(5.1863118e-05 -4.4245396e-06 5.6827896e-05)
(0.00011062961 2.875994e-05 0.00014884863)
(0.00016398971 3.1361771e-05 0.00020989661)
(0.00015110062 2.9706392e-05 0.00019452491)
(8.7319588e-05 3.0250296e-06 0.00011550351)
(3.7389656e-05 -1.274366e-05 4.3659967e-05)
(0.00013693288 3.1278779e-05 0.00017133399)
(7.1420333e-05 -3.4439825e-06 0.00010337592)
(0.00010146671 -2.3284892e-06 0.00017869152)
(8.7114428e-05 -3.7996661e-06 0.00013354989)
(0.00015918063 3.4028167e-05 0.00020785474)
(0.00015747391 3.4091597e-05 0.0002196395)
(7.3667274e-05 -2.9415118e-06 0.00010632778)
(0.00010318145 -1.6429758e-06 0.00015588805)
(1.3988868e-05 4.9709128e-06 1.4976383e-05)
(0.00010617911 -3.4560238e-06 0.00016919308)
(7.323615e-05 -6.5168765e-06 0.00011286697)
(0.00013335808 3.0000612e-05 0.00019672902)
(8.5173611e-05 -8.8046464e-07 0.00014721317)
(0.00014134974 2.8540119e-05 0.00019178357)
(0.00013657563 3.1668814e-05 0.00020640084)
(0.00015350724 2.830528e-05 0.00023134135)
(0.00013881078 3.2128073e-05 0.00019867521)
(2.0055084e-05 2.841363e-06 2.7577552e-05)
(-6.0809187e-06 -6.0124495e-06 -4.5688922e-06)
(0.00014693325 1.7725666e-05 0.00024573667)
(-6.9124384e-06 -2.4869088e-06 4.8052231e-06)
(8.2051665e-05 -5.6197705e-06 0.00012776752)
(0.00014380358 1.288488e-05 0.00024702777)
(0.00013791 -2.3764631e-05 0.00023442277)
(0.00014293303 -2.0092882e-05 0.00024293811)
(0.00011047113 6.8840308e-06 0.00016607557)
(9.6532558e-05 -3.4198909e-06 0.00015126271)
(7.6828717e-05 6.1278615e-06 0.0001015142)
(7.4678109e-05 1.4274539e-07 0.00010743427)
(0.00015104368 2.9014119e-05 0.00023881639)
(7.0440706e-05 -5.0688313e-06 0.00010207961)
(0.00015637302 2.2752402e-05 0.00024197696)
(0.00010088213 2.9654256e-06 0.00017560257)
(0.00016017482 7.5336175e-06 0.00029016621)
(8.6847095e-05 -5.0439054e-06 0.00013327292)
(7.2082623e-05 -6.2997598e-06 0.00011176385)
(7.5985036e-05 -5.8198342e-06 0.00011579641)
(0.00014821008 3.8025587e-05 0.00018548219)
(0.00011875269 2.7102415e-05 0.00015548946)
(4.5371355e-06 4.3446353e-06 7.7938821e-06)
(0.00010675652 6.168729e-06 0.00017659804)
(2.104502e-06 8.6584421e-06 8.5869466e-06)
(0.00010003439 -5.1643574e-06 0.00015555369)
(9.731848e-05 -9.6739267e-06 0.00015191388)
(4.9371967e-05 -6.8936949e-06 5.0946212e-05)
(7.7218574e-05 -5.5130458e-07 0.00010030421)
(0.00014586491 -2.6729118e-05 0.00024151252)
(0.00013661219 2.9541333e-05 0.00018607606)
(0.00010131767 -9.1583634e-06 0.00016242094)
(9.8039527e-05 -3.8776984e-06 0.00017287223)
(8.5375765e-05 -5.1116685e-06 0.00012894203)
(2.7376746e-05 3.4923273e-06 3.0634014e-05)
(0.00011322053 -3.4178086e-05 0.00017313593)
(0.00016096325 3.1927693e-05 0.00023399795)
(0.00014650714 -1.7000928e-05 0.00024724997)
(9.076412e-05 -4.8866288e-06 0.00013533476)
(0.0001200414 2.2393508e-05 0.00016676396)
(0.00015704658 1.4746607e-06 0.00027817428)
(0.00014882176 -1.5066196e-05 0.00024494085)
(0.00011880602 2.7280624e-05 0.00014872678)
(0.00017088629 3.462271e-05 0.00021353875)
(6.5378567e-05 -5.9277395e-06 7.6047196e-05)
(6.3436169e-05 -6.6664974e-06 7.1045371e-05)
(7.3996417e-05 -3.2052454e-06 8.6919592e-05)
(9.4004758e-05 -3.0111856e-06 0.00014043946)
(0.00014240306 2.5010591e-05 0.00021842509)
(9.2435081e-05 -6.6445231e-06 0.00014218637)
(2.4364518e-05 7.1403757e-06 5.2997296e-05)
(3.4579941e-05 1.7017087e-06 4.7014536e-05)
(3.479726e-06 8.2389429e-06 5.7554995e-06)
(8.3961227e-05 -4.499144e-06 0.00013116007)
(6.6482788e-06 7.3203427e-06 7.5517923e-06)
(8.2919947e-05 -6.3523147e-06 0.00013358665)
(6.0262066e-05 7.3358541e-06 9.0066523e-05)
(0.00016179287 2.9399458e-05 0.00021152488)
(0.00018645321 2.9621059e-05 0.00025385899)
(0.00016655644 2.9824438e-05 0.00024389894)
(0.00015706422 2.3679266e-05 0.00025929893)
(0.00011783342 2.5248252e-05 0.00016312885)
(9.5151319e-05 -7.9113386e-06 0.00015385592)
(0.00010138815 -3.3606254e-06 0.00017620583)
(3.4173099e-05 -1.8323844e-05 4.6145396e-05)
(6.6176028e-05 -7.0940551e-06 7.669272e-05)
(0.00017168792 3.6579515e-05 0.00021183653)
(6.0209162e-05 2.1547498e-06 8.1005629e-05)
(0.00011257555 -2.7313518e-06 0.00018548577)
(0.00010673316 -1.8685218e-06 0.00017932986)
(0.00011032941 -1.7138006e-06 0.00018214438)
(0.0001586618 3.6888684e-05 0.00020591465)
(0.00017960912 3.1947137e-05 0.00025070242)
(0.00016354948 3.2096805e-05 0.00019916116)
(0.00016507637 3.474072e-05 0.00022815457)
(0.00016995751 3.1810363e-05 0.00022576797)
(9.3934807e-05 -6.8794467e-06 0.00015819187)
(0.00016431689 2.9324819e-05 0.0002410976)
(0.00014565705 2.4529097e-05 0.00020717911)
(0.00010232461 -4.1275291e-06 0.00017195652)
(-1.0322312e-05 -5.876204e-06 -6.4889552e-06)
(0.00010518736 1.4687987e-06 0.00018033224)
(2.1568918e-05 -8.8481811e-06 3.1731053e-05)
(5.5912637e-05 3.5877787e-06 8.9828708e-05)
(0.00013250197 2.7334849e-05 0.00017651248)
(0.00013242874 2.7074811e-05 0.00017049121)
(0.0001372011 -3.9089637e-06 0.00023013826)
(0.00015839082 3.0476914e-05 0.00021473681)
(0.000104493 -1.2628278e-06 0.00017514155)
(0.00014302596 2.5368465e-05 0.00020490676)
(1.7604356e-05 -5.0767538e-06 2.6785158e-05)
(0.00014093656 2.499708e-05 0.00018340225)
(4.1325367e-05 -6.3408386e-06 4.4871416e-05)
(0.00016741505 2.8508507e-05 0.0002181669)
(0.00015244204 3.1504205e-05 0.00021773957)
(3.8831997e-05 2.6887369e-06 5.82321e-05)
(5.5238518e-05 9.751761e-07 7.2464592e-05)
(0.00015590385 2.8830932e-05 0.00024130724)
(6.2153487e-05 -4.3525311e-06 6.8864645e-05)
(-1.4082533e-05 3.9180599e-06 -1.3210323e-05)
(0.00016390706 3.1332618e-05 0.00021319821)
(0.00013972968 2.9106107e-05 0.00017866979)
(1.8378261e-05 2.3861911e-06 2.0444016e-05)
(0.00013918627 2.7364144e-05 0.00021138826)
(0.00013154174 2.4778288e-05 0.00018442883)
(0.00015704394 3.3660327e-05 0.00021318071)
(6.087554e-06 4.8182833e-06 6.2491802e-06)
(8.4002417e-05 -5.3042355e-07 0.00015104347)
(0.00013865609 2.4211483e-05 0.00021089162)
(0.00012658639 2.6884052e-05 0.00018590908)
(8.9074953e-05 9.6490707e-06 0.00014024119)
(0.00013919257 2.4329478e-05 0.00020399935)
(0.00010415135 9.7088597e-06 0.00016286488)
(0.0001265916 -2.0887441e-05 0.00020974342)
(1.1962887e-05 5.1426193e-06 8.6507703e-06)
(0.00012513306 -2.2129898e-05 0.00021076311)
(0.0001454946 2.3761724e-05 0.00023033449)
(0.00010276376 -3.6003246e-06 0.00017256436)
(1.2611666e-05 8.3944063e-06 1.8335932e-05)
(9.4615871e-05 3.9844105e-06 0.00017018993)
(0.0001413606 2.9431243e-05 0.00017515477)
(1.1192421e-06 8.8842142e-06 8.3702618e-06)
(0.00010510834 1.2115548e-05 0.00017016655)
(2.7000676e-06 9.471665e-06 4.2408546e-06)
(5.3702046e-06 7.1643914e-06 8.2880494e-06)
(0.00014354732 1.6738292e-05 0.00025106334)
(0.00014597913 2.6127994e-05 0.00017438233)
(0.00010643778 2.21956e-06 0.00017985739)
(0.0001444732 -1.8267848e-05 0.00023958238)
(2.3397395e-06 4.7931584e-06 1.3531528e-05)
(0.00010536313 -5.2713334e-06 0.00017191597)
(4.1957431e-06 9.5345058e-06 5.2560277e-06)
(0.00010938014 5.8537977e-06 0.00017834097)
(-6.3234293e-06 7.3865467e-07 -1.5717859e-05)
(-9.1469367e-06 1.5344318e-06 -1.423408e-05)
(0.00016584737 1.4457798e-05 0.00029299547)
(7.3729738e-06 7.2165081e-06 6.6881288e-06)
(0.00013822115 2.5201312e-05 0.00020877004)
(0.00015637056 2.5508997e-05 0.0002558697)
(-6.040232e-06 -3.4997953e-06 -1.3295238e-05)
(0.00015246512 2.4033897e-05 0.00023521576)
(9.4952265e-05 8.3593167e-06 0.00014232307)
(-6.7663862e-06 6.9791975e-07 -1.3635248e-05)
(6.1232924e-06 3.5838556e-06 5.4107152e-06)
(7.1734714e-06 5.3259152e-06 3.3139793e-06)
(0.00010079038 3.3604263e-06 0.00017020253)
(3.7354058e-06 6.1720223e-06 2.8829443e-06)
(5.5606812e-06 5.9995984e-06 3.6314033e-06)
(8.260329e-05 -1.0192852e-05 0.00010062022)
(0.00011605159 -3.012313e-05 0.00015781962)
(9.9698446e-05 2.6329975e-05 0.00014338855)
(0.00015350002 7.7437287e-06 0.00027001495)
(1.1295468e-05 6.0855985e-06 1.1658536e-05)
(0.00014522907 -1.935155e-05 0.00024811765)
(3.8516854e-05 -1.5221808e-05 4.7100771e-05)
(8.4620824e-05 -1.163479e-07 0.00014805687)
(1.7526548e-05 2.0371784e-06 5.0026646e-05)
(0.00010744133 -1.0390968e-06 0.00017466778)
(0.00010027759 5.6299507e-06 0.00017045199)
(9.1613125e-05 1.0397726e-05 0.00015563372)
(1.864392e-05 -6.5358351e-07 4.9142175e-05)
(0.00011578096 9.8755987e-06 0.00018213643)
(8.6671699e-05 1.0054563e-05 0.00013986046)
(0.00012448844 6.4130195e-06 0.0001858704)
(0.00013937607 2.6382098e-05 0.00022361914)
(9.6401595e-05 7.257776e-06 0.00016081994)
(9.3832899e-05 5.1360446e-06 0.00016839994)
(9.0924815e-05 1.7232784e-06 0.00015976107)
(9.7369027e-05 1.0089049e-06 0.00016517886)
(9.3206669e-05 1.7717705e-07 0.00016312929)
(0.00016820415 3.1404272e-07 0.00028738068)
(9.6816765e-05 -5.4468415e-07 0.00016490677)
(9.3665985e-05 2.9847738e-06 0.0001600453)
(9.4659131e-05 -1.0134684e-06 0.00016433847)
(0.00010503795 5.4641123e-06 0.00017934247)
(9.6586529e-05 1.1538037e-06 0.00016946072)
(0.00015749202 2.5418885e-05 0.00024264778)
(0.00011065886 5.136606e-06 0.00018019212)
(6.8999695e-05 -1.2393312e-05 8.0072466e-05)
(0.00010440176 6.8090388e-06 0.00017396798)
(-4.6639169e-06 2.4934969e-06 -1.2013734e-05)
(9.5168443e-05 -1.6383279e-06 0.0001675743)
(0.00010476907 3.1875526e-06 0.00018410898)
(0.00015411138 2.5313948e-05 0.00025780232)
(9.7120461e-05 4.3314409e-06 0.00016005967)
(0.0001006185 6.1216108e-07 0.00016978543)
(0.00010073611 6.889535e-06 0.00017958525)
(0.00010023637 -3.7510593e-07 0.00017068466)
(4.1608345e-05 -1.1282507e-05 4.407402e-05)
(9.3234414e-05 -4.542465e-06 0.00016716738)
(0.00014795725 2.2537446e-05 0.00023326237)
(6.2953861e-06 6.1257542e-06 4.3392061e-06)
(0.00010621092 2.8305619e-06 0.00018205802)
(0.00010149513 1.1579853e-05 0.00016823202)
(0.00011449753 2.4533644e-06 0.00018609333)
(9.8206998e-05 4.8567344e-06 0.0001618272)
(6.7157279e-05 -3.7299412e-06 7.5390832e-05)
(3.6827497e-05 6.8467137e-06 5.4941421e-05)
(0.0001016365 -4.6329537e-06 0.00016854859)
(9.6207391e-05 4.9037056e-06 0.00016047757)
(7.0331615e-06 4.7241521e-06 3.3620469e-05)
(1.7394583e-05 -9.5015182e-07 5.0595458e-05)
(8.8663968e-05 -7.8304352e-06 0.00014612112)
(0.00014124133 2.0336708e-05 0.0002232334)
(0.00015936271 2.3922081e-05 0.00024321257)
(7.3243035e-05 -4.1006943e-06 8.5494782e-05)
(8.8681838e-05 -5.8646644e-06 0.00013802806)
(0.00010688571 2.0766629e-06 0.00018853982)
(4.9420025e-05 -6.9240632e-06 5.2501088e-05)
(4.4868579e-05 -7.8343249e-06 5.0269864e-05)
(0.00016895743 -2.2740409e-05 0.00026471639)
(0.00016539249 -2.4300193e-05 0.00026082053)
(2.0383117e-05 4.5561715e-06 2.1142728e-05)
(8.8747848e-05 -6.8542132e-06 0.00015569016)
(3.779966e-07 1.0690305e-05 6.1475175e-06)
(3.981447e-06 5.2470571e-06 1.1493853e-05)
(2.174775e-06 1.1570386e-05 5.9481721e-06)
(0.00016031644 2.5787353e-05 0.00025442241)
(5.5230608e-05 -9.2643101e-06 6.436864e-05)
(2.8580078e-06 9.1774164e-06 1.093467e-05)
(0.00014275314 2.0285115e-05 0.00023190565)
(5.6151099e-05 -4.2127692e-06 7.3657389e-05)
(1.533393e-05 -6.7901084e-06 2.947651e-05)
(0.00014409467 1.9670585e-05 0.00022849346)
(3.226213e-05 1.5355299e-06 4.9702224e-05)
(7.5626789e-05 -5.5092057e-06 0.00010811079)
(1.4123385e-05 -2.6693294e-06 2.2109932e-05)
(9.6659128e-05 -2.2601097e-06 0.00015997456)
(2.212642e-05 -1.2245367e-05 3.5363955e-05)
(2.8607304e-05 -5.0018864e-06 4.0397811e-05)
(8.0414348e-05 -5.1537526e-06 0.00011689353)
(3.4036408e-05 4.0011404e-06 4.1476598e-05)
(9.3211156e-05 -9.7771916e-06 0.00015826241)
(2.4813281e-05 -8.3607874e-06 2.867708e-05)
(2.0306025e-05 6.7070014e-06 2.653239e-05)
(3.59982e-05 -1.3988166e-05 4.2365229e-05)
(0.00010434243 1.1765189e-05 0.00016811365)
(3.7716362e-05 -1.6414463e-05 4.773224e-05)
(1.7333069e-05 6.7958082e-06 1.7857182e-05)
(0.00011720782 1.5660771e-05 0.00019840582)
(0.00017152453 1.7586752e-05 0.00028573605)
(0.0001742842 1.6668251e-05 0.00029034708)
(0.00016852041 1.2426197e-05 0.0002848863)
(9.4971094e-05 9.8339163e-06 0.00016327124)
(4.7576591e-06 7.106349e-06 5.7198669e-06)
(0.00016945036 9.4645541e-06 0.00028583224)
(7.974226e-06 6.0510453e-06 5.0149839e-06)
(0.00017227329 1.6260487e-05 0.0002865936)
(0.00010422777 -4.5467184e-06 0.00018211593)
(0.00016260267 9.5661408e-06 0.00028300055)
(1.2441762e-05 5.441556e-06 9.6379775e-06)
(0.00014055224 1.6415025e-05 0.00022944885)
(0.0001319126 3.0232492e-05 0.00016082166)
(0.0001677734 1.401781e-05 0.00027963294)
(0.0001099996 -3.7221803e-06 0.0001804708)
(0.00016607496 2.6680382e-06 0.00027851421)
(0.00014072052 1.6005545e-05 0.00023174449)
(0.00015655059 2.3771648e-05 0.00024098805)
(0.00016355722 1.4996531e-05 0.00027510245)
(4.3374733e-06 7.9698782e-06 1.2501061e-06)
(0.00017025304 2.514682e-05 0.00027135199)
(7.7225565e-05 -1.5350974e-06 0.00014564627)
(5.2339864e-06 8.4584308e-06 4.5131581e-06)
(0.0001756861 1.6515084e-05 0.00029078951)
(0.00013949922 1.5356079e-05 0.0002301754)
(9.095231e-05 -6.3802419e-06 0.00015326096)
(0.00015725424 2.3357089e-05 0.00026383077)
(0.00016857738 2.4976071e-05 0.00026800817)
(0.00015083998 1.842159e-05 0.00024220545)
(0.00016948292 1.8678078e-05 0.00028623016)
(0.00015937713 2.7733285e-06 0.00027306089)
(0.00014229282 1.7593974e-05 0.00023889292)
(5.239012e-05 -7.289284e-06 5.9441992e-05)
(0.00015193789 1.3841864e-05 0.00027066492)
(5.2931211e-05 -1.1138606e-05 6.4073088e-05)
(0.00016154976 2.1417066e-06 0.00028462234)
(0.00014166358 2.12867e-05 0.00023355679)
(0.00014471176 3.306439e-05 0.00017350587)
(0.00014324546 1.7079528e-05 0.00023653225)
(0.0001599682 1.5994996e-05 0.00028043575)
(2.1528302e-05 -6.0372342e-06 5.2174776e-05)
(7.8843976e-05 -5.879607e-06 0.0001374786)
(0.00014117432 1.583895e-05 0.00024277774)
(0.00015209659 1.0088318e-05 0.00025790859)
(0.00014530119 1.3687979e-05 0.00023990135)
(0.00015017153 5.2910362e-06 0.00025674083)
(0.00012459282 1.1291535e-05 0.00021733056)
(8.6380852e-05 -5.0636132e-06 0.00013671233)
(2.1377732e-05 -8.4411753e-07 4.8903804e-05)
(0.00016360393 -2.5406527e-07 0.00028072335)
(0.00014441225 -1.6952211e-07 0.00026043466)
(0.00014259945 1.8717638e-05 0.00023230685)
(1.9911543e-05 1.0114907e-06 4.9864986e-05)
(0.00014464927 9.8441173e-06 0.00026253687)
(5.6966166e-05 -6.2639723e-06 6.5862642e-05)
(0.00014084055 1.6834647e-05 0.00023863286)
(0.0001248941 9.4200292e-06 0.0002229795)
(7.0385882e-05 -6.254623e-06 8.2682634e-05)
(0.00016753638 -1.4578822e-06 0.00027941013)
(0.00013476912 6.5791066e-06 0.00024088396)
(1.5658968e-06 8.6483757e-06 5.9468261e-06)
(2.9720778e-06 9.1663236e-06 1.6264148e-05)
(0.00014114022 3.0436573e-05 0.00016735491)
(5.9036797e-05 -6.1211213e-06 7.1431553e-05)
(0.00014569258 1.1197951e-05 0.00025213788)
(0.00010120656 1.1358715e-05 0.00015672831)
(1.019998e-05 2.607334e-06 2.2045232e-05)
(0.00015107689 1.8428651e-05 0.00024959564)
(4.3678893e-06 6.1203693e-06 2.1848375e-06)
(7.4919894e-05 -1.1704188e-05 9.0826796e-05)
(0.0001551398 9.9772193e-06 0.00025666255)
(0.00016471413 2.1414596e-05 0.00025450451)
(3.556458e-05 -1.1099837e-05 4.1719127e-05)
(0.00011566573 1.0697789e-05 0.00020045464)
(0.00011875263 8.3199036e-06 0.00020033062)
(0.00015792016 1.7436064e-05 0.00025026669)
(0.00015440392 2.6828946e-05 0.00017914285)
(0.00016229594 3.6493088e-05 0.00020710511)
(0.00016059536 -1.4979332e-06 0.00027632267)
(0.00016049528 2.1075648e-05 0.00025122088)
(0.00015226673 1.809194e-05 0.00024749763)
(9.2366838e-05 8.6387957e-06 0.00015200287)
(0.00013877868 3.4109027e-05 0.00017338356)
(0.00013498589 3.7250584e-06 0.00024668868)
(9.9546945e-05 -3.097722e-06 0.00017139494)
(9.9416746e-05 -3.4023857e-06 0.00017378957)
(0.00014248057 6.6845304e-06 0.00023941954)
(0.00014602135 1.0362535e-05 0.00025549771)
(0.00014734875 1.1072975e-05 0.00023962241)
(0.00014079706 7.3412616e-06 0.00023784349)
(0.00013721311 1.4575324e-05 0.0002328939)
(4.1998763e-05 -8.1138411e-06 4.2714846e-05)
(0.00013884197 6.9733408e-06 0.00023659013)
(0.00010565296 3.0636673e-06 0.00018969022)
(0.0001081959 -6.501219e-06 0.00018692311)
(0.00013969435 1.1654053e-05 0.00023749913)
(0.00015434843 3.2577566e-05 0.00018294144)
(0.00015518111 7.3245959e-06 0.00026714953)
(7.8906958e-06 6.3310877e-06 6.198308e-06)
(0.00014514185 4.7531026e-06 0.00025608253)
(0.00016994925 6.6305421e-06 0.00028954888)
(8.4293758e-05 -7.1156327e-06 0.00014655702)
(1.2977258e-05 6.3218122e-06 1.5218125e-05)
(4.2468204e-05 -1.428487e-05 5.1848939e-05)
(6.6095894e-06 6.7102255e-06 5.3159086e-06)
(0.00014932371 2.3513188e-05 0.00021736044)
(9.2772925e-05 -6.113833e-06 0.00015383317)
(-5.4551627e-06 1.3563146e-06 -1.2928102e-05)
(7.0435674e-06 8.7750544e-06 1.5026265e-06)
(2.0269326e-05 3.7595578e-06 1.987684e-05)
(0.0001406924 2.5835606e-05 0.00016580205)
(3.8570526e-06 6.7885158e-06 -3.349414e-07)
(1.4810115e-05 3.1573038e-06 1.2808003e-05)
(4.5153035e-05 -9.5012197e-06 5.1650757e-05)
(4.5234511e-05 -1.1561384e-05 5.4806597e-05)
(3.9816216e-05 -9.1002991e-06 4.5010982e-05)
(4.8762381e-05 -7.3499305e-06 5.671508e-05)
(4.8336332e-05 -8.5054563e-06 5.8738644e-05)
(4.5868112e-05 -7.6606277e-06 5.2125432e-05)
(0.00019134589 2.4248503e-05 0.00021651608)
(4.4187862e-05 -9.9806378e-06 5.3772001e-05)
(0.00014726735 -5.8098282e-07 0.00025108444)
(4.8467164e-05 -5.5315559e-06 5.9132346e-05)
(2.1583033e-05 3.7745556e-06 2.464717e-05)
(4.8843774e-05 -6.6866795e-06 6.2036296e-05)
(0.0001131646 4.9044228e-06 0.00019488693)
(5.9773135e-05 -8.6921983e-06 7.4664963e-05)
(0.0001050181 1.8200426e-06 0.00019292909)
(8.1777182e-05 -2.2967873e-05 0.00014941445)
(0.0001458726 2.7086614e-06 0.00025561245)
(2.3934193e-05 -5.5904452e-06 2.9660133e-05)
(7.862892e-05 -4.5063029e-06 0.00013690126)
(0.00014410826 -4.628462e-06 0.00024859471)
(-1.0324996e-07 1.0289435e-05 5.8103685e-06)
(8.4496492e-05 -1.9094623e-06 0.00013809215)
(0.00014436414 -9.0113904e-07 0.00024636675)
(0.00010235069 -6.287825e-06 0.00016723298)
(4.0217866e-05 6.3882816e-07 6.1041489e-05)
(9.6082927e-05 1.2150867e-05 0.00015679169)
(9.4944208e-05 8.4402752e-06 0.00015801585)
(2.3096218e-06 9.2264703e-06 4.4830652e-06)
(3.9236126e-06 8.9935556e-06 2.4538776e-06)
(4.7024489e-05 1.3229116e-06 5.9917223e-05)
(0.0001434855 -3.9226181e-06 0.00024690338)
(2.0308425e-06 2.9435224e-06 1.2732657e-05)
(1.6647376e-05 -3.5352936e-07 4.1932208e-05)
(0.00015244962 1.4914411e-05 0.00024863931)
(7.8243178e-05 -4.7767827e-06 0.0001356446)
(0.0001393764 2.6156197e-05 0.00021863754)
(3.3624791e-06 8.0966381e-06 3.3601681e-06)
(1.3247853e-05 -2.2131655e-06 2.6541523e-05)
(8.5824855e-06 9.2908844e-06 7.4024147e-06)
(3.0948533e-05 -1.200079e-05 4.2295832e-05)
(1.6016869e-05 7.4778305e-06 1.3534431e-05)
(1.0155259e-05 5.9211221e-06 5.4022388e-06)
(9.5999125e-06 6.1478073e-06 3.079373e-06)
(1.0575025e-07 8.5755821e-06 8.6951927e-06)
(0.00015044863 -4.5136001e-06 0.00025242709)
(1.0771682e-05 6.992299e-06 8.3060533e-06)
(7.7015063e-06 9.8237329e-06 2.3029223e-06)
(3.1223066e-06 7.4362262e-06 -2.4652654e-06)
(6.1152745e-06 5.0492345e-06 -4.5420471e-06)
(-7.650817e-07 6.6007653e-06 -1.5591618e-06)
(4.02713e-06 4.485307e-06 -3.7526983e-06)
(9.2928538e-05 -4.7777142e-06 0.00015496787)
(-4.3406044e-06 1.1556556e-06 -1.0817838e-05)
(0.00013955587 2.2682171e-05 0.00022571491)
(0.00013919026 1.8662511e-05 0.00022233528)
(-7.8240695e-06 -3.1432705e-06 -1.3042361e-05)
(4.7854209e-05 -1.318314e-05 5.8026505e-05)
(2.9126469e-05 2.4419104e-06 5.0137553e-05)
(0.0001431814 2.4685364e-05 0.0001611804)
(2.8579093e-05 4.4224946e-06 4.9023087e-05)
(4.3070097e-05 -1.6633284e-05 5.6813364e-05)
(0.00011463814 2.5457475e-05 0.00013481575)
(1.4792314e-05 7.3631372e-06 1.9366653e-05)
(2.6042493e-05 1.9387079e-06 5.040121e-05)
(3.2445224e-05 -4.199367e-06 5.1794041e-05)
(-2.7366032e-06 1.0778618e-05 8.7202693e-06)
(0.00010165695 1.0448024e-05 0.00016727419)
(0.00015231971 2.906568e-05 0.00017287025)
(0.00016693196 3.4688741e-05 0.00019015669)
(4.6230855e-05 -7.1548512e-06 5.5305403e-05)
(4.6415676e-05 -7.9945007e-06 5.8251343e-05)
(0.00015524444 2.8084617e-05 0.00017485066)
(0.00010880684 9.3269695e-06 0.00017412089)
(0.0001040869 1.0659287e-05 0.00017079275)
(1.9917322e-05 7.2259691e-06 2.0123946e-05)
(9.3483313e-05 -1.0688915e-05 0.00014343826)
(2.9623638e-05 -7.7718335e-06 3.9134585e-05)
(0.00017049697 3.2795084e-05 0.00019120982)
(9.8311225e-06 7.9079704e-07 2.1492994e-05)
(3.1714846e-05 -4.0605977e-06 5.6615684e-05)
(2.1267414e-05 2.096045e-07 4.4195837e-05)
(2.1917786e-05 9.7176208e-06 2.6749577e-05)
(3.3521197e-06 5.6485653e-06 1.5780902e-05)
(0.00011107195 -2.7849489e-06 0.00017532213)
(3.506914e-06 8.2486343e-06 3.1321442e-06)
(0.00018390718 3.0716528e-05 0.00021038858)
(2.0046663e-05 3.9930879e-06 2.3203165e-05)
(2.1388641e-05 5.8020476e-06 2.5084929e-05)
(0.00015388346 2.254285e-05 0.00017507861)
(2.1207302e-05 2.9639104e-06 2.3806647e-05)
(2.8062184e-06 8.0200518e-06 2.3049596e-06)
(0.00014840967 2.5264731e-05 0.0001733643)
(3.5051014e-05 -9.9199366e-06 4.4990631e-05)
(2.1651742e-05 4.5480924e-06 2.6752803e-05)
(2.9789856e-05 2.4716453e-07 3.2029963e-05)
(1.0297894e-05 -6.6030441e-07 3.5655321e-05)
(-5.2938944e-06 3.3281438e-06 -1.2558826e-05)
(0.00014063661 3.2144103e-05 0.00016664353)
(0.0001362448 2.0081635e-05 0.00021392027)
(0.00010049122 -7.465567e-06 0.00017188229)
(0.00014083658 2.2887528e-05 0.00022032292)
(1.9102368e-05 -4.5235244e-06 2.9888442e-05)
(2.3633252e-05 2.7752608e-06 3.818498e-05)
(1.4137783e-05 4.1987173e-06 2.05764e-05)
(3.2575781e-06 9.9955866e-06 2.1804226e-06)
(1.7025195e-05 6.8079253e-07 2.8720163e-05)
(7.8861896e-06 3.2169133e-06 1.9118918e-05)
(1.5882901e-05 -1.3253025e-06 3.1942533e-05)
(1.9189458e-05 -2.3500246e-06 3.9554348e-05)
(8.4284457e-07 6.590455e-06 1.4025336e-05)
(-6.9979406e-07 1.0513503e-05 3.4299556e-06)
(3.3044644e-06 6.0886626e-06 1.1459544e-05)
(1.0850703e-05 2.1970399e-06 2.0629023e-05)
(3.4649543e-05 -6.1274196e-06 4.4405625e-05)
(-2.318853e-06 9.4000963e-06 1.7522571e-06)
(-1.5300223e-06 9.6222433e-06 3.1635561e-06)
(-2.6502126e-06 7.9740228e-06 7.7464067e-06)
(-3.4002091e-06 8.8045175e-06 2.2728958e-06)
(2.4729864e-05 8.7181351e-06 2.6717543e-05)
(5.3012884e-05 1.2204013e-05 7.3000585e-05)
(-1.4374456e-06 -2.7559721e-08 -1.0733178e-05)
(4.7093552e-05 -2.5804074e-06 5.2539075e-05)
(3.6115496e-05 -2.762874e-06 4.9646106e-05)
(2.8435712e-05 -3.7335249e-07 3.9555725e-05)
(4.1391078e-05 8.1288587e-06 5.5205801e-05)
(0.00013732226 2.4278553e-05 0.0001542737)
(0.0001447714 1.8312161e-05 0.00015986328)
(0.00014209145 2.3372192e-05 0.00015697546)
(0.00015005334 2.0181354e-05 0.00016714409)
(0.00014980508 1.9835028e-05 0.00015907132)
(0.00014614316 2.2420444e-05 0.00016473035)
(0.00016042748 1.8839238e-05 0.00016929305)
(0.00015461475 1.6489956e-05 0.00016027784)
(0.0001417666 2.1812614e-05 0.00014783701)
(0.00015301944 2.5557761e-05 0.00016765122)
(0.00015659985 2.2176336e-05 0.00016466292)
(0.00015029909 1.9148875e-05 0.00015776542)
(0.00014645746 1.6830453e-05 0.00014539167)
(0.00014960338 1.6602063e-05 0.00014732354)
(0.00015066596 1.9564281e-05 0.00015044956)
(0.00016109938 1.3395206e-05 0.00015993893)
(0.00015892265 1.025978e-05 0.00015367656)
(0.00014550562 1.9316136e-05 0.00016057513)
(0.00015654473 1.255917e-05 0.00015065604)
(0.00013876319 1.6047924e-05 0.00013891712)
(0.00015300129 2.2438132e-05 0.00016140476)
(0.00011033393 2.2756442e-05 0.00012595614)
(0.00015310348 1.9007351e-05 0.00015596119)
(0.00013962285 1.9883641e-05 0.00014929896)
(0.00014717577 1.7630773e-05 0.00016494617)
(0.00015048536 2.5722645e-05 0.00015623755)
(0.0001415 1.4192914e-05 0.00014766265)
(0.0001333209 1.210911e-05 0.00013590063)
(0.00014318178 1.3899465e-05 0.00013859836)
(0.00014850118 1.0461461e-05 0.00014246282)
(0.00013605302 1.5168124e-05 0.00014116641)
(0.0001424498 2.6104823e-05 0.00015412525)
(0.00011979385 1.1575421e-05 0.00011789559)
(0.00014407365 7.1965112e-06 0.00014504404)
(0.00014691173 8.0777761e-06 0.00013724503)
(0.00011839613 3.3925745e-06 0.00011446433)
(0.0001581681 3.1966581e-05 0.00017523404)
(0.00014042937 6.3868194e-06 0.00013047796)
(0.00014114527 1.7916298e-05 0.00013702752)
(0.00014654533 1.5343302e-05 0.00014591852)
(0.00011308958 5.9469153e-06 0.00011181929)
(0.00015325225 1.645104e-05 0.00016002022)
(0.00011229777 8.3958236e-06 0.00010827583)
(0.00014483014 2.0946009e-05 0.00014169054)
(0.00015162519 1.9955824e-05 0.00015564543)
(0.00014403351 2.3566293e-05 0.00015763501)
(0.00014297737 2.2739997e-05 0.00015380122)
(0.00013138259 1.0353973e-05 0.00012812354)
(0.00014296293 1.2960948e-05 0.00014120478)
(0.00014069525 1.1954977e-05 0.00014002195)
(0.00014620159 2.1215518e-05 0.00015391296)
(0.00012682845 9.2979043e-06 0.00013164368)
(0.00014154657 1.97497e-05 0.00014228085)
(0.00014228942 2.1304954e-05 0.0001616935)
(0.00013536217 1.8464014e-05 0.00014683035)
(0.00014153573 2.0241969e-05 0.00013720706)
(0.00014816001 2.6966698e-06 0.00013762511)
(0.00014591158 1.4484584e-05 0.00013668132)
(0.00014115891 2.5458766e-06 0.00012904593)
(0.00013129725 1.0887847e-05 0.00012400421)
(0.00013034866 5.7784881e-06 0.00012641671)
(0.00011286576 7.6544399e-06 0.00010559069)
(0.00011986888 1.4465203e-05 0.00011376915)
(0.00014246427 6.3840316e-06 0.00013760571)
(0.00010792223 3.2195961e-06 9.8639278e-05)
(0.00013647822 1.3965187e-06 0.00012786347)
(0.00013110114 1.4999759e-05 0.00014137716)
(0.00012549361 1.2119423e-05 0.00012792159)
(0.00013336635 2.4393389e-05 0.00014788283)
(0.00012134682 3.936246e-06 0.00011261002)
(0.00013020541 2.6984187e-05 0.00014225484)
(0.00012928242 3.8722177e-06 0.00011942487)
(0.00012963797 5.7064896e-07 0.00011499622)
(0.00013517251 1.3114705e-05 0.00014687929)
(-5.1083936e-06 3.1470585e-06 -9.6208171e-06)
(0.00013282245 -5.0482421e-06 0.00011613255)
(-5.0140907e-06 7.4434356e-07 -1.1371395e-05)
(0.00013819234 9.6299939e-06 0.00013033343)
(0.00014842784 1.8599645e-05 0.00015610421)
(-3.5475088e-06 1.5218667e-06 -1.1743915e-05)
(0.00014505327 1.1528747e-05 0.00013904837)
(0.00015366146 3.4354555e-05 0.0001703327)
(0.00014108491 1.4653785e-05 0.00013006718)
(0.00015610541 4.1379905e-05 0.00018665536)
(0.00014151365 1.4077303e-05 0.00014965452)
(0.00016061901 3.3920999e-05 0.00017725895)
(0.00010666617 7.803193e-06 0.00010127731)
(0.00013339036 2.2261527e-05 0.00013775684)
(0.00011710617 4.8157188e-06 0.00010918655)
(0.00014525557 -2.1623581e-06 0.00013234126)
(0.00013638371 3.6727761e-06 0.00012189927)
(0.00014305355 1.6825584e-05 0.00013360676)
(0.00015256769 2.5980736e-05 0.00015993277)
(8.6673192e-05 9.3242794e-06 0.00011911432)
(0.00011201352 -4.1423441e-06 9.9089923e-05)
(8.1626592e-05 9.6143428e-06 0.00011545539)
(-6.1048913e-06 9.5771766e-07 -1.1755605e-05)
(0.00013647885 3.1602798e-05 0.00015974623)
(0.0001370576 2.1129957e-05 0.00014037978)
(0.00012669226 -2.7044823e-06 0.00011568905)
(0.00012801037 -1.6116546e-06 0.00010999952)
(0.00013849104 5.6951666e-06 0.00012707778)
(0.00013910934 -8.0416711e-07 0.00012433041)
(0.00012986069 6.9862173e-07 0.00011461244)
(0.00014433871 6.8786778e-06 0.00013160378)
(0.00010881649 -2.7394742e-06 9.3594227e-05)
(0.0001261496 1.0372404e-05 0.00011871477)
(1.2517334e-05 4.8196546e-06 2.8673105e-05)
(0.00014262237 4.2446555e-06 0.00013008445)
(9.2638848e-05 -6.8881473e-06 8.2343183e-05)
(0.00010013199 -1.3027751e-06 8.9936687e-05)
(8.0713588e-05 7.9270112e-06 0.00010914532)
(0.00012317135 -3.257259e-06 0.00010592685)
(0.00010758913 -6.5966233e-06 9.5764759e-05)
(0.00012633528 1.5702922e-05 0.00012457313)
(0.00012636464 5.9421794e-06 0.00011413996)
(0.00012393205 1.550126e-05 0.00012116447)
(0.00013618976 6.0396611e-06 0.00011916613)
(9.8242324e-05 -1.1387206e-06 8.504394e-05)
(0.00011594617 1.0355204e-06 9.9461872e-05)
(0.00010782027 -1.0942893e-05 9.2804125e-05)
(0.00010537397 -5.3488188e-06 9.0969931e-05)
(0.0001244313 2.3985476e-06 0.00011106352)
(0.00010651614 -7.4029723e-06 9.0937785e-05)
(0.00011621098 -5.8388658e-06 9.9467446e-05)
(0.0001088164 -5.3049391e-06 9.2725046e-05)
(9.2628254e-05 -4.6769455e-06 7.8806039e-05)
(0.00010283292 -8.9116309e-06 8.824517e-05)
(0.00010499332 -1.1226096e-05 9.0675183e-05)
(0.00013069602 6.9690952e-06 0.00012552367)
(0.00010555551 -1.0075387e-05 8.924466e-05)
(0.00010578341 -1.0077509e-05 8.8749213e-05)
(0.00011111268 -4.8588315e-06 9.3244779e-05)
(-7.5601116e-06 3.7830152e-06 -1.1962731e-05)
(9.883475e-05 -1.0555632e-05 8.388603e-05)
(0.00010765349 -1.4519706e-05 9.2280792e-05)
(0.00011591263 -1.9432594e-05 0.00015858282)
(0.00010193587 -1.5019389e-05 8.5522126e-05)
(0.00010197856 -1.2870498e-05 8.7335312e-05)
(9.5643192e-05 -1.3291062e-05 7.9585945e-05)
(0.0001077927 -7.9506042e-06 9.2360901e-05)
(9.9691471e-05 -1.2528989e-05 8.3998873e-05)
(-6.4378501e-06 -1.2067129e-06 -1.2031973e-05)
(9.8900559e-05 -1.395243e-05 8.0196805e-05)
(0.00010649349 -1.2012114e-05 8.7893481e-05)
(-5.7818819e-06 7.551138e-08 -1.3023365e-05)