/*--------------------------------*- C++ -*----------------------------------*\
  =========                 |
  \\      /  F ield         | OpenFOAM: The Open Source CFD Toolbox
   \\    /   O peration     | Website:  https://openfoam.org
    \\  /    A nd           | Version:  11
     \\/     M anipulation  |
\*---------------------------------------------------------------------------*/
FoamFile
{
    format      ascii;
    class       volVectorField;
    location    "10000";
    object      wallShearStress;
}
// * * * * * * * * * * * * * * * * * * * * * * * * * * * * * * * * * * * * * //

dimensions      [0 2 -2 0 0 0 0];

internalField   uniform (0 0 0);

boundaryField
{
    wall-fluid_domain
    {
        type            calculated;
        value           nonuniform List<vector> 
34505
(
(0.00027470829 -6.9714968e-06 0.00026976711)
(0.00027313055 -1.4424422e-05 0.00024021188)
(0.00048296112 7.9663751e-05 0.00035133877)
(0.00030434688 -1.8494128e-05 0.00025249277)
(0.00031134832 -1.0983037e-06 0.00027668679)
(0.00045316237 6.5791197e-05 0.00041021593)
(0.00022726396 2.2950382e-06 0.00019972486)
(0.0002917866 1.1105879e-06 0.00027755512)
(0.00034579964 -1.2701318e-05 0.00032101774)
(2.2819159e-06 -2.484841e-05 2.7295442e-05)
(0.00045859673 6.4218036e-05 0.00041098032)
(0.00048906312 -8.7917059e-05 0.00033591393)
(0.00031699776 8.5776016e-06 0.00029038818)
(0.0003728277 9.8278361e-06 0.00034235812)
(0.0003599183 -6.8675474e-06 0.0003051566)
(0.00030102674 -9.4690271e-06 0.0002430576)
(0.00040498652 -2.1838475e-06 0.00030745251)
(0.00033864173 8.8591329e-06 0.00031486776)
(0.00033055069 -6.1268979e-06 0.00026462797)
(0.00042453049 -2.9503268e-05 0.0002552569)
(0.00028515896 -4.2586189e-06 0.00027916214)
(0.00029527873 -6.8381299e-06 0.00027051485)
(0.00038240015 2.7345796e-05 0.00025513863)
(0.00023408606 -3.8993633e-06 0.00022014872)
(0.00032893362 8.3336651e-06 0.00027092689)
(0.00021269381 -1.0059908e-05 0.00020541094)
(0.00024119422 -5.0792546e-06 0.00022087676)
(4.4791327e-06 -3.5780418e-05 -6.1468221e-06)
(0.00029416803 -1.3699214e-05 0.00024926766)
(-3.1538613e-06 -3.9775595e-05 -3.3131342e-05)
(0.00051600839 4.9531613e-05 0.00033706833)
(0.0002961002 4.2690181e-06 0.0002584586)
(0.00022371792 -6.7835423e-06 0.00023840619)
(0.00047949906 -5.0513727e-05 0.00028995173)
(0.00022687254 -3.457101e-06 0.0002235719)
(4.0904613e-06 -4.1415944e-05 -2.3080369e-05)
(0.00031881428 -4.9308579e-07 0.0002979502)
(0.00050028329 8.0944007e-05 0.00038389244)
(0.00048265468 8.5657582e-05 0.0003911052)
(0.00036717244 -2.0163089e-06 0.00034122964)
(0.00020234771 3.777654e-06 0.00020147355)
(0.00028171035 1.1359813e-06 0.00022882444)
(1.7108375e-05 -4.8591118e-05 -2.0156242e-05)
(-2.0629436e-05 -5.3232855e-05 -5.9740788e-05)
(-1.4386988e-05 -6.1936686e-05 -7.7181001e-05)
(0.00034530587 -1.123206e-05 0.00033686343)
(3.7966474e-05 -3.3362933e-05 1.9975689e-05)
(0.00029166796 9.763531e-06 0.00026693879)
(0.00036679721 1.3909058e-05 0.00030617845)
(0.00041179511 -7.7564221e-05 0.00030787981)
(0.00029740457 3.1263993e-06 0.00027270739)
(-1.1350281e-06 -2.9457316e-05 -9.5978934e-06)
(0.00040724144 -7.4960105e-05 0.00032143282)
(0.00030010232 -1.3036517e-06 0.00032792442)
(0.00030332921 -1.4149873e-06 0.00027113056)
(0.00039823385 5.4439248e-06 0.00033129333)
(0.00029109408 1.0902165e-05 0.00025468883)
(0.00032374719 2.1114643e-06 0.00027997702)
(1.7732474e-05 -2.9945047e-05 1.7776856e-05)
(0.00033767093 1.4608297e-05 0.00028665054)
(-3.81921e-06 -4.1330233e-05 -1.7242006e-05)
(0.00037546817 1.1240484e-05 0.00030349578)
(0.00040110554 3.3301906e-06 0.00034214228)
(2.6653662e-05 -3.2256623e-05 2.4344988e-05)
(0.00023166187 7.5960883e-06 0.00020960112)
(1.9482142e-05 -2.6506283e-05 8.0852879e-06)
(0.00030093945 1.7843345e-05 0.00024379693)
(0.00022550477 2.3556808e-06 0.00021462914)
(0.00031615648 6.1558655e-06 0.00025570611)
(0.00052618017 6.559189e-05 0.00033776194)
(0.00044058122 -6.4147321e-05 0.0002727238)
(0.00041604696 5.9994475e-05 0.00028722688)
(0.00054209438 -7.6598262e-05 0.00033506202)
(0.00041827474 -8.786577e-06 0.00025826834)
(0.00038847428 1.9645713e-05 0.00026738332)
(0.00017642142 -3.3863287e-06 0.00020487444)
(0.00041146858 4.0585551e-05 0.00027190891)
(2.964819e-05 -1.5753877e-05 2.1453884e-05)
(0.00037155629 -3.6494834e-05 0.00023108319)
(0.00017963589 -1.0241921e-05 0.0001699781)
(0.00037069108 -1.4886563e-07 0.00029933329)
(0.00017864831 -1.4834907e-05 0.00014941475)
(8.1703705e-05 -3.5562955e-05 6.8476671e-05)
(-1.9472526e-06 -4.4698565e-05 -2.0748701e-05)
(0.00049073411 8.173775e-05 0.00035555722)
(0.000342829 -6.3407707e-06 0.00026816207)
(0.00035766662 -5.6592486e-05 0.00032159961)
(0.0005263705 -7.9533618e-05 0.00045924326)
(0.00019417142 -1.9053934e-05 0.00019298408)
(0.00049434429 -7.8986628e-05 0.00033323681)
(0.00014768091 6.8643902e-06 0.00012522901)
(-1.4983416e-06 -5.0368486e-05 -3.5661537e-05)
(0.00039873504 2.5730999e-05 0.00026422819)
(0.00036240752 -2.4170792e-05 0.00022485755)
(0.00015412675 5.771805e-07 0.00011721273)
(0.00015396217 -2.36938e-05 0.00013812123)
(0.00037189156 4.705641e-05 0.00024694804)
(0.00010329264 1.5077103e-05 8.994798e-05)
(0.00041978004 5.0401416e-05 0.00028386231)
(-8.2521052e-06 -5.3604692e-05 -4.6935925e-05)
(3.1037735e-05 -4.3155596e-05 -9.5232099e-06)
(0.0004694726 6.5278043e-05 0.00032543493)
(-1.4809309e-05 -5.505065e-05 -6.7761661e-05)
(2.5305617e-05 -4.8734637e-05 -1.9456129e-05)
(0.00044469598 -5.5655994e-05 0.00027410266)
(0.00042221905 -5.6639245e-05 0.00026228182)
(0.00054715797 -9.3239228e-05 0.00034852646)
(0.00017747499 -1.9983671e-06 0.00016612212)
(3.6374363e-05 -3.0205106e-05 3.8101358e-05)
(0.00019572155 -1.8344849e-05 0.00020710231)
(3.5166736e-05 -3.6412757e-05 2.1614945e-05)
(3.2068684e-05 -2.1093229e-05 4.0930087e-05)
(3.0872453e-05 -2.7224591e-05 3.8122232e-05)
(3.4505995e-05 -3.8468646e-05 3.7759462e-05)
(0.00020439258 -7.6412038e-06 0.00018023405)
(0.00017543077 -3.4783188e-06 0.00017255049)
(0.00037172504 3.4378743e-05 0.00025087096)
(0.00020807059 -2.1273168e-06 0.00016401588)
(0.00049979777 -5.2381639e-05 0.00029976525)
(2.5027895e-06 -4.4606986e-05 -4.348243e-05)
(0.00043032025 4.0010866e-05 0.0002914129)
(0.00041355183 3.9993822e-05 0.00028300439)
(2.7397391e-05 -5.6019842e-05 -7.4958379e-06)
(-2.5300226e-05 -5.7767391e-05 -6.3657549e-05)
(0.0005079009 -5.1588244e-05 0.00029679173)
(0.00041635303 4.8572417e-05 0.00028988895)
(2.7524596e-05 -4.7752042e-05 -1.4811187e-06)
(0.00042679771 -5.314873e-05 0.00026484339)
(0.00033881511 4.1435971e-05 0.00025053153)
(0.00050784087 -5.7469486e-05 0.00030313126)
(0.00044395166 -6.7690557e-05 0.0002852964)
(7.4384007e-05 -1.9005377e-05 3.7669331e-05)
(0.00043744855 5.6869412e-05 0.00030351406)
(1.8403429e-05 -5.5213624e-05 -8.1340327e-06)
(1.1899764e-05 -3.9511648e-05 -4.6780768e-06)
(0.0005047349 -6.8215967e-05 0.00030823759)
(-1.8666263e-07 -4.589406e-05 -2.0992704e-05)
(-1.1977841e-05 -3.9524596e-05 -4.5605756e-05)
(0.00010054808 1.2445184e-05 8.9854702e-05)
(-2.0224771e-05 -4.955274e-05 -6.0045806e-05)
(2.767588e-05 -5.5635273e-05 3.622243e-06)
(4.1244054e-05 -5.0502585e-05 9.2341867e-06)
(3.132017e-05 -3.0315848e-05 2.655638e-05)
(2.5956899e-05 -1.3689419e-05 4.496138e-05)
(4.0385906e-05 -3.7205454e-05 4.3668185e-05)
(2.1137909e-05 -4.3198882e-05 -1.4279305e-06)
(2.9234831e-05 -7.7084563e-06 3.030113e-05)
(1.5546475e-05 -5.1199553e-05 3.5753396e-06)
(2.9849589e-05 -3.7096072e-05 2.1160418e-06)
(7.5834609e-06 -2.6568575e-05 -3.7562577e-05)
(-2.3676933e-05 -2.7565779e-05 -5.2973328e-05)
(-1.7910314e-05 -3.7527704e-06 -3.6886161e-05)
(-8.2771423e-06 -3.3204452e-05 -6.973472e-06)
(3.6853651e-05 -5.0227591e-05 9.3127598e-06)
(-4.7754273e-05 2.5075871e-07 -2.6108284e-05)
(-2.8206595e-05 1.3398512e-05 -2.237222e-05)
(-6.077508e-05 2.2117744e-05 -1.2609648e-05)
(-4.8492705e-05 2.8967196e-05 -2.3853697e-05)
(-2.5847414e-05 -7.9691148e-06 -5.2835383e-05)
(3.8942805e-05 -5.2478721e-05 1.6322691e-05)
(-2.7308324e-05 2.6133358e-05 -3.8081096e-05)
(-5.4483429e-05 5.4712414e-05 -2.3748344e-05)
(1.9959241e-05 -3.2816704e-05 1.8997852e-05)
(-5.4286498e-05 6.9813874e-05 -2.6230707e-05)
(-6.8310039e-05 7.271554e-05 -2.1436848e-05)
(3.7448646e-05 -4.6978105e-05 4.4263645e-05)
(4.2159303e-05 -5.2600504e-05 1.7416844e-05)
(-5.0178461e-05 7.0918519e-07 -2.6613211e-05)
(3.9067635e-05 -4.9874344e-05 2.3890682e-05)
(-8.2818413e-05 7.4746662e-05 -6.789666e-06)
(-7.0783083e-05 6.1144879e-05 -1.2630937e-05)
(1.6531624e-05 -4.3706427e-05 1.1198474e-05)
(2.775971e-05 -4.7004696e-05 1.3863245e-05)
(2.5947403e-05 -7.1383669e-06 4.3876561e-05)
(3.6401185e-05 -2.3114919e-05 5.146831e-05)
(4.2140252e-05 -4.8991942e-05 2.1689337e-05)
(3.5656231e-05 -4.4032197e-05 4.5653346e-05)
(-4.5733339e-05 4.6884348e-05 -2.2766653e-05)
(3.7287308e-05 -5.5653251e-06 3.274926e-05)
(3.2286594e-05 -3.998812e-05 7.3767933e-06)
(1.7173493e-05 -3.3584607e-05 1.6504226e-05)
(0.00055783665 -8.2281771e-05 0.00052606002)
(4.0494499e-05 -5.1778501e-05 2.5581689e-05)
(-6.2377037e-06 -5.6982345e-05 -7.8468202e-05)
(3.7215347e-05 -3.4888312e-05 4.7470087e-05)
(0.00053727876 -7.112053e-05 0.00051364327)
(2.5992973e-05 -4.9907422e-05 2.3167959e-05)
(3.8859252e-05 -4.6610097e-05 1.7510698e-05)
(4.5834949e-05 -5.2976161e-05 2.8835382e-05)
(3.7295947e-05 -5.793173e-05 3.380335e-05)
(3.8781173e-05 -6.0394891e-05 3.3994072e-05)
(2.3391867e-05 -5.316997e-05 2.2778202e-05)
(2.9691769e-05 -5.6471793e-05 3.4272227e-05)
(3.7184709e-05 -5.1561691e-05 3.1239696e-05)
(3.485982e-05 -5.439448e-05 4.4668516e-05)
(1.2865739e-05 -2.0387793e-05 1.1152614e-05)
(3.767598e-05 -5.3740351e-05 4.4649187e-05)
(3.3270214e-05 -4.2868513e-05 2.5444319e-05)
(0.00046606914 6.523508e-05 0.00044506972)
(3.5522345e-05 -5.0192448e-05 4.4044122e-05)
(0.00049491484 5.0426597e-05 0.00047226116)
(3.7295581e-05 -4.5268082e-05 3.998437e-05)
(3.5174236e-05 -4.3948865e-05 4.8125879e-05)
(3.5478428e-05 -4.4263349e-05 2.7857593e-05)
(3.7528932e-05 -4.368198e-05 4.7094742e-05)
(3.9515646e-05 -1.9886568e-05 5.4074763e-05)
(3.3215672e-05 1.557842e-06 4.1730599e-05)
(2.8920366e-05 -5.860191e-05 4.5305596e-05)
(3.6617915e-05 -1.2942623e-05 5.3097248e-05)
(-1.1140908e-05 -6.4925288e-05 -7.4834582e-05)
(2.8204309e-05 -5.7311922e-05 4.5374848e-05)
(3.7190625e-05 -3.8080977e-05 5.4623601e-05)
(3.6422981e-05 -3.0790906e-05 5.5640751e-05)
(3.5422196e-05 -3.5765898e-05 5.8293915e-05)
(4.1792405e-05 -2.2153402e-06 5.6117509e-05)
(3.4771726e-05 -4.0738537e-05 6.2383239e-05)
(3.7440458e-05 -2.3030032e-05 6.0352766e-05)
(3.8453902e-05 -1.9131752e-05 5.7406119e-05)
(2.9141475e-05 -5.4173756e-05 5.9621811e-05)
(3.5222568e-05 -2.9870162e-05 5.913073e-05)
(3.9389407e-05 3.3604304e-06 3.1650647e-05)
(3.6464431e-05 -3.7879408e-05 6.9245859e-05)
(4.6795033e-05 3.0093531e-06 4.8005023e-05)
(4.3060835e-05 -1.3377802e-05 6.6180368e-05)
(4.0927304e-05 -3.8452245e-05 7.3060299e-05)
(2.2062514e-05 -5.833556e-05 5.5153342e-05)
(2.0329802e-05 -5.9808888e-05 5.9398135e-05)
(4.2269352e-05 4.8818897e-06 4.482973e-05)
(4.4976985e-05 -7.9990124e-06 6.2461227e-05)
(4.216694e-05 1.0034483e-05 4.541335e-05)
(3.0165358e-05 -5.8403223e-05 5.998312e-05)
(4.0960626e-05 -3.1950717e-05 7.608796e-05)
(3.9176308e-05 -5.7571121e-05 5.681771e-05)
(1.6791943e-06 -5.0869555e-05 3.2644409e-05)
(2.4837872e-05 -6.358555e-06 2.3284706e-05)
(3.6061833e-05 -2.8434667e-05 5.7730771e-05)
(0.00015301889 2.272189e-05 0.00011316491)
(0.000384956 -1.8751516e-05 0.00036892833)
(0.00021849018 3.9392335e-06 0.00017772021)
(0.00021315785 1.3348895e-05 0.00016673583)
(0.00032443409 -2.4508414e-06 0.00026918487)
(0.00021844193 -2.8333663e-06 0.00019610722)
(0.00036032923 6.3241209e-05 0.00031686553)
(0.000369747 -1.514533e-05 0.00032899027)
(0.00051587454 -0.00010323386 0.00042585732)
(0.00029205963 -2.2034104e-05 0.00027064683)
(0.00028165627 -5.2128634e-06 0.00028576195)
(0.00018848679 1.5868614e-05 0.00013646497)
(0.0004442331 6.737925e-05 0.00038606376)
(0.00026295805 3.1091075e-06 0.00021250048)
(0.00044830843 7.4856109e-05 0.00034483318)
(0.00035247675 2.0680918e-05 0.00032588187)
(0.0003839334 -4.2231069e-06 0.0002749217)
(0.00036182926 6.2268306e-05 0.00030713856)
(0.00043662186 -7.526057e-05 0.00031629409)
(0.00031067355 -1.121813e-05 0.00030777365)
(0.00043142739 -6.7032669e-06 0.0002985509)
(0.00016618512 -2.026776e-05 0.00014683213)
(0.00054652136 -9.8404926e-05 0.00042017385)
(0.00034645886 7.5998893e-06 0.00028179202)
(0.00033300358 -1.2626647e-05 0.00031880018)
(0.00011311587 3.7634529e-05 9.5667294e-05)
(0.00052516081 8.3547001e-05 0.00037712701)
(0.00033196711 -4.2549528e-06 0.00026005594)
(0.00041460822 -7.3651196e-06 0.0003039773)
(0.00029398406 2.1096203e-05 0.00028792733)
(0.00048145271 -8.1856693e-05 0.00033021443)
(1.8650245e-05 -2.8412458e-05 1.4029597e-05)
(-8.0850295e-05 0.00010764394 4.3431318e-06)
(-8.4510696e-05 9.25576e-05 -2.5888558e-05)
(0.0003058498 1.9492038e-05 0.00031361982)
(0.00013400638 2.5253865e-05 0.00010143175)
(0.0003842873 -2.7081713e-06 0.0003834397)
(0.000204964 1.4691406e-05 0.00016723385)
(0.00022876 4.6792988e-06 0.00018445827)
(0.00015288055 4.3346887e-06 0.00012892817)
(-5.6527369e-05 5.0469579e-05 -2.2851473e-05)
(-5.4472088e-05 6.4526896e-05 -3.4461087e-06)
(0.00031875947 6.7632508e-06 0.0002665641)
(0.00036211985 -6.7223815e-05 0.00031568586)
(8.3869537e-05 3.4422172e-05 8.8767675e-05)
(0.00035346032 2.1009792e-05 0.00032402564)
(-1.8578912e-05 1.6364366e-05 -1.146834e-05)
(9.9265635e-06 -2.7133984e-05 7.4827546e-06)
(0.00023146117 -1.1072346e-05 0.00023204677)
(-1.9598482e-05 -4.9506192e-05 -6.0218652e-05)
(0.000326061 2.6689496e-05 0.00031537223)
(0.00012955211 1.9047593e-05 0.00012511686)
(0.00039562593 2.1500917e-05 0.00027023777)
(0.00010297349 3.6879304e-05 8.5168102e-05)
(0.00050965728 -2.2467546e-05 0.00051375996)
(0.00033941835 1.9327695e-05 0.00032195391)
(0.00047145162 5.5224391e-06 0.00049301126)
(0.00040135182 3.263888e-05 0.00026553215)
(0.00028770279 -1.8535951e-06 0.00029277751)
(-1.5519964e-05 -5.0863419e-05 -6.5382284e-05)
(0.00036902367 2.0315296e-05 0.00032704742)
(0.00031653248 1.3917556e-05 0.00031102465)
(0.00047562417 -2.920073e-05 0.00028380265)
(-2.3270474e-05 8.2989578e-06 -2.8438396e-05)
(0.00049053707 4.2320962e-05 0.00033084689)
(0.00044579609 2.725962e-05 0.00029308819)
(0.00029981559 2.2656051e-05 0.00026420202)
(0.00020072528 2.7656916e-06 0.00016195673)
(2.7649755e-05 -3.617461e-05 2.7249998e-05)
(0.00043472554 -2.6815629e-05 0.00026751051)
(0.00023088049 1.4155376e-05 0.00017899853)
(-2.0383844e-06 -9.9229604e-06 1.5735802e-05)
(0.00024397363 -1.3230557e-06 0.00020013714)
(-1.379674e-07 6.9778086e-07 -2.2946941e-06)
(0.00025925989 2.2983739e-05 0.00023426464)
(0.00020214824 7.4378417e-06 0.00016090986)
(0.00016164557 2.6695618e-05 0.00012348685)
(0.00040756919 -1.2839918e-05 0.00037511757)
(0.00048835482 5.3242054e-05 0.00034045712)
(0.00020024895 5.5894389e-06 0.00015979389)
(0.00012556436 4.9308205e-05 0.00011435131)
(0.00031015316 1.5949272e-05 0.00031168477)
(0.00021434912 8.6017872e-06 0.00016431543)
(0.00023499736 1.4500284e-05 0.00017539166)
(0.00010711122 2.0533109e-05 8.2968213e-05)
(0.00038576122 -7.5654779e-06 0.00033569618)
(0.00044312036 -9.4809493e-06 0.00027824198)
(0.00030577514 2.1314051e-06 0.00024581263)
(0.00032669432 -7.7787115e-06 0.00032427103)
(0.00038889111 -1.7283507e-05 0.00035879778)
(0.00034657126 -1.046544e-05 0.00030832863)
(0.00023687289 2.4480784e-05 0.00018162469)
(0.00033607348 -1.0095523e-05 0.00033029685)
(0.00017481707 2.1217245e-05 0.00012948854)
(0.00027481029 -8.1741295e-06 0.00027876792)
(0.00024837297 -8.8843462e-06 0.00022655983)
(9.97762e-05 3.0845716e-05 7.5762722e-05)
(2.9139928e-05 -3.9881857e-05 1.6079283e-05)
(0.00029671325 -1.1155441e-05 0.00026418381)
(7.9587566e-05 4.557167e-05 9.3323073e-05)
(0.00028851663 -1.3235024e-05 0.00027019464)
(0.00019482879 7.3660867e-06 0.00015968957)
(0.00043208867 -1.4366158e-05 0.00042623769)
(0.0003693683 2.2095835e-05 0.00033332957)
(5.4488904e-05 -2.3212744e-06 7.5126363e-05)
(3.9185883e-05 -2.2533315e-05 6.8913367e-05)
(0.00013467673 5.6973366e-06 0.00011900937)
(0.00047757373 -4.7754681e-05 0.00027628303)
(4.282762e-05 1.4626223e-05 3.6613573e-05)
(0.00013621774 1.2372418e-05 0.00012138869)
(0.00018474976 2.723967e-05 0.00014046083)
(3.2486848e-05 -3.2432896e-07 3.1830272e-05)
(7.7102145e-05 3.1596144e-05 6.8013971e-05)
(0.00011973484 1.3133109e-05 0.00011470072)
(0.0003632501 1.8189272e-05 0.0003122148)
(0.00036754608 2.6326677e-08 0.0003662457)
(0.00050579935 -7.3648142e-05 0.00030681862)
(0.00032025157 -1.6280725e-05 0.00032228367)
(2.9860934e-05 -4.218761e-05 2.5732462e-05)
(3.3287756e-05 3.5392269e-06 2.9617053e-05)
(0.00031719707 1.0458244e-05 0.00033284866)
(0.00029810233 1.9078131e-05 0.00026934108)
(7.66024e-05 3.4877014e-05 9.1247288e-05)
(0.00047864053 1.8091746e-05 0.00050504374)
(0.00049488861 -2.7073054e-05 0.00052165345)
(0.00033215789 2.1556879e-05 0.00032339335)
(0.00029284174 -7.3962095e-06 0.0002474822)
(3.2574061e-05 8.5231273e-06 1.5801183e-05)
(0.00036096512 3.3013545e-06 0.00036493098)
(9.9013063e-05 2.6507645e-05 0.0001019111)
(0.00026493501 -1.3043082e-05 0.00022953034)
(0.00028848836 2.0321523e-05 0.00028772083)
(0.00010970055 2.6692222e-05 0.00012049488)
(0.00025299408 -2.3339883e-06 0.00020239828)
(0.00038418515 3.9190334e-06 0.00039444866)
(7.9136863e-05 4.2691633e-05 8.7772506e-05)
(0.00029366656 2.0475398e-05 0.00028876229)
(0.00015555366 4.4768625e-05 0.00012976596)
(0.00043819502 1.6941716e-06 0.00044647467)
(-6.7047318e-05 0.00010094967 1.7093811e-05)
(-7.4849361e-05 9.3747551e-05 -1.6219191e-05)
(-9.489527e-05 0.00010626322 -4.2735298e-05)
(0.00031863217 -1.4435598e-05 0.00030902336)
(0.00038047063 1.4651035e-05 0.00032866026)
(-8.1585344e-05 9.1828272e-05 -4.824313e-05)
(0.00036279285 2.2882371e-05 0.00032048886)
(0.00041062317 1.2137606e-05 0.00033975726)
(-4.8248764e-05 0.00010008236 1.9653296e-05)
(8.4071309e-05 4.2243664e-05 9.0315614e-05)
(7.7155615e-05 3.8902705e-05 7.7993196e-05)
(0.00016404955 3.7491683e-05 0.00012643973)
(0.00010304085 3.9820598e-05 8.7172603e-05)
(0.00037608506 -1.3957487e-05 0.00032724699)
(2.3752794e-05 -5.968586e-05 -7.1995321e-05)
(8.7986629e-05 3.5416054e-05 7.7082955e-05)
(0.00028380389 -4.7987276e-06 0.00023667649)
(7.9050123e-05 3.5212234e-05 6.9975754e-05)
(0.00040743591 2.1159156e-05 0.00040124581)
(0.00033082176 5.6589498e-06 0.00033594235)
(0.00012701967 2.8899176e-05 9.9470711e-05)
(0.00038257468 1.0754169e-05 0.00039144714)
(7.7544565e-05 4.164298e-05 7.9006405e-05)
(0.00040234344 6.4278852e-06 0.00040445964)
(0.00038642873 2.0922309e-05 0.00039541303)
(7.4972229e-05 3.6811899e-05 7.3653682e-05)
(8.0247732e-05 4.0708066e-05 8.5976084e-05)
(7.12266e-05 4.2269013e-05 7.9237403e-05)
(0.00028587023 -4.9096653e-06 0.00023830446)
(0.00033831759 1.207872e-05 0.00034158319)
(0.00010291361 4.9025373e-05 0.0001049931)
(0.00035756638 1.1809237e-05 0.00030335731)
(0.00010606206 2.8698002e-05 7.8976379e-05)
(-3.7013683e-05 2.1995169e-05 -1.8041153e-05)
(-3.1973282e-05 3.7602107e-05 -1.0700306e-05)
(5.4806347e-06 -1.6521239e-05 1.7881289e-05)
(0.00031460841 4.3265985e-06 0.00025495218)
(0.0004523521 2.2663771e-06 0.00048596293)
(0.0004612014 -5.9316728e-06 0.00048773486)
(-6.7471962e-06 -2.7136798e-05 -1.9538757e-05)
(0.00045603507 8.8685086e-05 0.0003617928)
(0.00034088027 1.2372866e-05 0.00029024005)
(0.00044248771 7.649679e-05 0.00037803195)
(-9.9756875e-07 -3.5072386e-05 -5.6322273e-05)
(0.00029316888 -2.0760806e-05 0.00024813581)
(0.00043971225 -8.0767335e-05 0.0003257242)
(0.00054790568 -9.6556602e-05 0.00041238451)
(0.00030615788 1.0324088e-06 0.00026122411)
(5.4930922e-05 4.8402683e-06 6.5042391e-05)
(5.6071585e-05 1.9514825e-05 4.4165156e-05)
(0.00038457429 9.2586664e-06 0.00029376334)
(0.00038651942 -8.6552317e-06 0.00032639624)
(3.4567612e-05 1.5620853e-05 1.6567984e-05)
(0.0003355555 1.5062767e-05 0.00025794989)
(1.601023e-05 -5.9616438e-05 3.0090377e-05)
(0.00028861825 1.4936875e-05 0.00024133311)
(0.00050132198 2.9364849e-05 0.00032427094)
(0.00039138194 2.0504967e-06 0.00027145806)
(2.0656287e-05 -9.9407319e-06 1.3778902e-05)
(0.0005000561 3.0915704e-05 0.0003273622)
(0.00049856014 5.2043307e-05 0.00033658075)
(2.6724685e-05 8.4485166e-07 1.8613114e-05)
(1.7441288e-05 -6.5436943e-05 3.0211882e-05)
(0.00038132667 4.4536904e-06 0.00029115578)
(-9.4677652e-05 0.00012973765 -3.1994251e-05)
(0.00042568447 1.2689418e-05 0.00028064485)
(-0.000107411 0.00012788976 -3.3773691e-05)
(-5.5083791e-05 0.00010710425 4.5174151e-05)
(-0.00011131311 0.00012184427 -5.2694378e-05)
(-8.2298765e-05 0.00010908882 3.7507348e-05)
(9.5894133e-06 -6.3289496e-05 2.6368581e-05)
(0.00029744415 4.8480341e-06 0.00022757607)
(0.00040094914 9.8859782e-06 0.00028710334)
(7.4264105e-06 -5.4521232e-05 1.3405529e-05)
(0.00044747815 -1.4535063e-05 0.0002895598)
(-7.0273462e-05 7.7757657e-05 -4.8664257e-05)
(-0.00010924233 0.00012146948 -5.6089717e-05)
(-6.5503884e-05 0.00010069335 1.7611671e-05)
(-8.3079443e-05 9.8334741e-05 5.6309667e-06)
(-0.00012780595 0.00011439853 -5.8547334e-05)
(-0.00014888134 0.00015052054 -8.6201523e-05)
(-3.2262385e-05 0.00010357602 5.1752152e-05)
(-5.770436e-05 7.0921087e-05 -2.5358856e-05)
(-0.00012972293 0.00013301326 -8.6697544e-05)
(0.00048198048 -3.0639478e-05 0.00028007102)
(-5.5740858e-05 9.3980797e-05 3.6518042e-05)
(-0.00013872481 0.00011888116 -8.5334457e-05)
(-0.00017491449 0.00015336088 -9.0051257e-05)
(-7.4676015e-05 6.8174527e-05 -5.3223209e-05)
(-3.2178925e-05 5.651241e-05 2.9639032e-05)
(-5.8011203e-05 6.4415173e-05 -4.3841887e-05)
(6.7833865e-06 8.1299924e-05 7.095902e-05)
(-5.9545295e-06 6.8023135e-05 3.9379262e-05)
(0.00042622824 -1.6808279e-05 0.00025289552)
(-9.4228932e-05 9.1388181e-05 -7.2295433e-05)
(0.00043302796 1.9941559e-06 0.00027706154)
(-0.00015547129 0.000127973 -0.00010836315)
(-9.3398883e-05 8.5084199e-05 -7.6604315e-05)
(-5.160525e-05 5.5496122e-05 -4.4380732e-05)
(0.00044658681 -6.8404804e-06 0.00027739948)
(0.00048312672 -3.4948073e-05 0.00028081529)
(-4.2438319e-05 7.4147379e-05 5.457278e-05)
(0.00048480953 -5.1944908e-05 0.00028485304)
(-0.00010260277 8.6585862e-05 -7.610607e-05)
(-1.4108021e-05 7.7961767e-05 9.2566835e-05)
(1.989229e-06 5.0274139e-05 2.0296207e-05)
(5.2638269e-05 1.0382378e-06 5.9110699e-05)
(-9.958371e-06 5.7448469e-05 6.1435562e-05)
(1.3895937e-05 7.6637127e-05 9.6885759e-05)
(1.6620084e-05 -3.2564551e-05 -1.5420476e-05)
(1.0766176e-06 4.2842421e-06 1.6982133e-05)
(-0.00015666595 0.0001047443 -9.4040795e-05)
(5.4121267e-05 1.2051482e-05 4.2136401e-05)
(-2.4773849e-06 5.0560175e-05 6.9816138e-05)
(-0.00016663752 0.00013055053 -0.00010808407)
(3.3094213e-05 -4.9428989e-05 -5.257223e-05)
(6.0789127e-05 1.3846537e-05 6.776372e-05)
(5.2331372e-05 -2.1119594e-05 -3.0989457e-05)
(6.9259948e-05 -9.6866101e-06 1.5382398e-05)
(3.7939008e-05 -3.6453531e-05 -4.99216e-05)
(5.4086572e-05 1.4977607e-05 3.2713799e-05)
(7.3879833e-05 -1.093816e-05 -1.297663e-05)
(5.4108814e-05 -1.3003925e-05 2.1282666e-05)
(-1.400619e-05 -2.80456e-05 2.6556553e-05)
(-4.526129e-05 2.5714874e-05 -4.7712219e-05)
(5.3432237e-05 3.4106161e-06 2.8149682e-05)
(1.9601908e-05 -1.8533213e-05 1.5162955e-05)
(3.7956923e-05 -1.3103047e-05 1.891611e-05)
(3.9099547e-05 -1.101232e-05 2.6476685e-05)
(6.2935468e-05 -1.8029113e-07 3.7460058e-05)
(3.079353e-05 -1.7604205e-05 9.3767317e-06)
(4.3214142e-05 -6.1616219e-06 2.7595842e-05)
(1.3381472e-05 -2.2122673e-05 2.6442101e-05)
(3.9384279e-05 -5.7798663e-06 4.2160135e-05)
(1.4566632e-05 -1.8610006e-05 3.1733044e-05)
(4.4037654e-05 1.4633014e-06 5.6146218e-05)
(0.00047952741 1.491551e-05 0.0003052775)
(0.0004021701 1.2978921e-05 0.00027023807)
(0.00044931295 1.070504e-05 0.00029099116)
(0.0004495321 2.5844704e-05 0.00029144821)
(0.00042918219 1.2817702e-05 0.000277837)
(0.00046991311 4.0515084e-07 0.00032717316)
(0.00045440287 -7.7656463e-06 0.00030719848)
(0.00040244358 3.4525425e-06 0.00028044964)
(0.00044291602 1.4053818e-05 0.00029343278)
(0.00045227592 -6.9500381e-06 0.00030554001)
(0.00051825372 1.3190057e-05 0.0003254046)
(0.00043314976 6.6608331e-06 0.00028295281)
(0.00054407207 4.3966885e-05 0.00035670019)
(-2.0690766e-05 3.4041807e-05 -7.9477554e-06)
(1.6724781e-05 -7.0008888e-05 3.5018267e-05)
(0.00026422748 1.4424189e-05 0.00021491417)
(-8.0976303e-05 5.276473e-05 -4.6010259e-05)
(0.00053234866 3.2584702e-05 0.00033685747)
(-1.4886293e-05 -1.3075143e-05 -1.4751318e-05)
(0.0004066884 -1.2056548e-05 0.00029381882)
(0.00041582192 -8.2304357e-06 0.00029177461)
(-3.6754576e-05 1.6806763e-05 -2.7903387e-05)
(0.00046488152 -1.8524548e-06 0.000328543)
(0.00040589323 -1.1550468e-05 0.00029424633)
(0.00041716642 -8.1521725e-06 0.00029131105)
(0.00043654109 -7.3797371e-06 0.00029141812)
(0.00051995415 1.3427331e-05 0.00032162078)
(0.00053698528 3.718806e-05 0.0003341574)
(7.8689863e-06 6.9764744e-05 4.0708149e-05)
(0.00034955927 -4.4123709e-06 0.00024485873)
(0.00043924927 -3.9276858e-06 0.0002901903)
(0.00055111609 5.4654076e-05 0.00036115366)
(-4.8851068e-05 4.3756844e-05 -4.2169706e-05)
(-7.1032533e-05 6.2504186e-05 -5.8374352e-05)
(0.00043422297 -1.4112994e-05 0.00025702355)
(-0.00014108627 8.1681489e-05 -9.7035275e-05)
(0.00042917632 -9.7248701e-06 0.00025566056)
(0.00038612006 3.1821935e-06 0.00028431694)
(0.00033745194 -1.0725095e-05 0.00032115051)
(-0.00012090398 0.00010622504 -9.4367274e-05)
(0.00044058864 -1.4588907e-05 0.00025321302)
(0.00052103618 -3.1875242e-05 0.00029314201)
(0.00043998071 -1.7470949e-05 0.0002538091)
(0.00042684342 2.0452509e-06 0.00025856069)
(0.00042371767 -4.4825731e-06 0.00024346473)
(0.00045058951 2.5635429e-06 0.00027021251)
(0.00048599519 -1.62634e-05 0.00027322469)
(-0.00016003238 0.00011008521 -0.00011474457)
(0.00034566685 7.3822812e-07 0.0002135992)
(0.00046627525 1.3175802e-05 0.00027076053)
(0.00048993535 -2.1180785e-05 0.00027388529)
(0.00045479559 1.3938045e-05 0.00028058086)
(0.00034049162 5.7781807e-06 0.00020836326)
(0.00044687414 -2.1248722e-06 0.00028610055)
(0.00047499087 1.017666e-05 0.00028576484)
(0.00042398946 9.0062248e-06 0.00026056572)
(0.00051568864 -4.9735527e-05 0.00029646544)
(0.00046415415 7.0286785e-06 0.00026664671)
(0.00034769175 -2.0319925e-05 0.00034184585)
(0.00045978588 1.3775853e-05 0.00030693373)
(0.00052801637 -4.1272904e-05 0.00029624021)
(0.00046327532 1.8745482e-05 0.00027357373)
(0.0004328165 9.8197254e-06 0.00028229614)
(0.00045234559 -1.0913993e-05 0.00025099163)
(0.00047708656 2.9443449e-05 0.00029395841)
(-3.6045938e-05 2.5463932e-05 -1.1695703e-05)
(2.1726206e-06 3.1864878e-05 2.6158592e-05)
(0.00046364212 8.0211193e-06 0.00030311153)
(0.00044318813 -1.3026916e-05 0.00042698921)
(0.00045358349 -2.7230813e-06 0.00025250288)
(0.00050129483 3.7258496e-05 0.00031700986)
(0.0004836007 -2.5159701e-05 0.00027088631)
(0.00041394289 1.4806907e-05 0.00024333171)
(-9.2963722e-05 4.478184e-05 -5.322088e-05)
(0.00047337833 2.6822638e-05 0.00028778113)
(0.00046208874 1.5183082e-05 0.00026705857)
(0.00049434084 4.3875621e-05 0.00032232269)
(2.4713285e-05 5.3276826e-05 5.6181443e-05)
(0.00044424746 5.46267e-06 0.00024886104)
(0.00043017886 3.2202453e-05 0.00025124991)
(0.00039597529 1.8891116e-05 0.00025329047)
(0.00044996723 1.5879724e-05 0.00025232891)
(0.00043099225 2.3259157e-05 0.00025061731)
(0.00042516797 1.7026077e-05 0.0002739757)
(0.00032338532 -1.5203804e-05 0.00031013576)
(-4.9514475e-05 4.7863596e-05 -5.5337503e-05)
(0.00047881032 3.7800917e-05 0.00029668661)
(0.00046776728 -1.7998484e-05 0.00025922437)
(-4.2090112e-05 1.8802397e-05 -2.9567658e-05)
(0.0004822383 3.0595738e-05 0.00029145636)
(0.00048147458 4.0348003e-05 0.00029204293)
(0.00041608994 2.7696101e-05 0.00023384008)
(0.00045304634 -3.7107177e-06 0.0002444826)
(0.00044628884 1.6134465e-05 0.00024833934)
(0.0003719807 3.0973949e-05 0.0002223831)
(0.00046803682 -5.4013649e-05 0.00027786102)
(0.00044586341 4.1537304e-05 0.00026461703)
(0.00034364183 7.095377e-06 0.00026239379)
(0.00041524775 2.2251811e-05 0.00023541969)
(0.00038038931 2.6222186e-05 0.00024064194)
(0.00047019278 -2.4334192e-05 0.00025435877)
(0.00037407928 3.0883423e-05 0.00023743017)
(0.00039711167 1.8930249e-05 0.00029759249)
(0.00048743145 -3.3339374e-05 0.0002727777)
(0.00041193291 8.1963655e-06 0.00022344203)
(0.00037702449 3.1365631e-05 0.0002899591)
(0.00041063703 2.5930719e-06 0.00022962408)
(0.00048729334 -3.2872864e-05 0.00026992463)
(0.00036891262 -1.9180858e-05 0.00020663512)
(0.00043071283 4.7485773e-05 0.0002666198)
(0.00051953085 2.3158888e-05 0.00032434533)
(0.00045767857 3.1412901e-05 0.0002995866)
(0.00044608985 4.1231952e-05 0.00028780672)
(-7.2886787e-05 6.5450984e-05 -6.5520551e-05)
(0.0002703777 2.6315253e-05 0.00017270433)
(-0.00015090034 7.2941549e-05 -9.7812582e-05)
(-0.0001290972 0.00010952798 -0.00010485495)
(0.00052947287 -4.9633601e-05 0.00031015309)
(0.00044397199 5.1101714e-05 0.00029464751)
(0.00042005184 4.0897415e-05 0.00027561418)
(-9.7454393e-05 9.7208027e-05 -9.0639628e-05)
(-0.00017210058 0.00011279663 -0.00012468464)
(-2.1612953e-05 1.6054323e-05 -3.2652594e-05)
(0.00053486961 2.8748298e-05 0.00034017084)
(2.5631116e-05 3.7092774e-05 3.4043637e-05)
(-2.3457566e-07 2.8168944e-05 2.9461448e-06)
(-1.6660687e-05 9.3262484e-06 -3.5261481e-05)
(-8.487204e-05 2.361062e-05 -5.7639474e-05)
(0.00041038446 1.423941e-05 0.00027148604)
(-8.2461479e-06 8.9810743e-07 -3.2351426e-05)
(9.9054072e-06 3.7969845e-05 5.0946572e-06)
(-8.9648958e-06 -1.623054e-05 -8.6145754e-06)
(1.4032171e-05 1.6408676e-05 -5.0305037e-06)
(7.6171104e-05 -1.6325067e-05 1.8522087e-05)
(-9.6297058e-05 2.380303e-05 -6.6113067e-05)
(-1.7952576e-05 -5.2426068e-06 -3.3038812e-05)
(0.00039744997 2.4127689e-05 0.00026027336)
(6.58987e-05 2.8417418e-05 7.4394038e-05)
(7.6614383e-05 -1.0999e-05 -5.9932078e-06)
(8.0286147e-05 1.4310673e-05 8.3193828e-05)
(6.5733301e-05 -4.105392e-05 -4.4136568e-05)
(-9.3233332e-05 2.1063151e-05 -7.5615176e-05)
(6.1233265e-05 9.0043355e-07 5.3777117e-05)
(-1.9497946e-05 -1.2790522e-05 -2.9121578e-05)
(2.723327e-05 -1.9745639e-06 -7.1077776e-07)