/*--------------------------------*- C++ -*----------------------------------*\
  =========                 |
  \\      /  F ield         | OpenFOAM: The Open Source CFD Toolbox
   \\    /   O peration     | Website:  https://openfoam.org
    \\  /    A nd           | Version:  11
     \\/     M anipulation  |
\*---------------------------------------------------------------------------*/
FoamFile
{
    format      ascii;
    class       volVectorField;
    location    "10000";
    object      wallShearStress;
}
// * * * * * * * * * * * * * * * * * * * * * * * * * * * * * * * * * * * * * //

dimensions      [0 2 -2 0 0 0 0];

internalField   uniform (0 0 0);

boundaryField
{
    wall-fluid_domain
    {
        type            calculated;
        value           nonuniform List<vector> 
50462
(
(0.00017858552 -1.7344052e-05 0.00013054969)
(0.00020275021 -2.5165464e-05 0.00015554264)
(0.00020020045 -1.7940686e-05 9.7035322e-05)
(0.00018166601 -1.5955515e-05 8.8829767e-05)
(0.00020659245 4.1344122e-05 0.00011259742)
(0.00021389886 -5.38286e-06 0.00020969513)
(0.00020470668 -1.1228129e-05 0.000200383)
(0.00022104547 -5.3002284e-07 0.00021859918)
(0.00021474008 -1.7170888e-05 0.000111268)
(0.00020789256 -8.8713295e-06 0.00020293341)
(0.00024516346 1.2079498e-05 0.0002358189)
(0.0001823336 -1.140491e-05 9.2552801e-05)
(0.00019970629 6.8250861e-06 0.00020259113)
(0.00022084295 1.5295956e-05 0.00021228293)
(0.00021536231 1.4882107e-05 0.00021030087)
(0.00023915172 1.1271047e-05 0.00023155209)
(0.00018467667 -1.042975e-05 9.3307429e-05)
(0.00018830239 4.8012711e-06 0.00019517237)
(0.00021071588 1.0342929e-06 0.00021589252)
(0.00019948158 -5.1098071e-06 9.871325e-05)
(0.00022654811 1.6389737e-05 0.00021693277)
(0.00013234194 -1.1891507e-05 6.9724783e-05)
(0.00018496259 6.484858e-06 0.0001894377)
(0.00017896359 -4.9237139e-06 0.00010384937)
(0.00023013695 1.2103319e-05 0.00022950566)
(0.00016346813 -5.9944616e-06 8.681145e-05)
(0.00022213008 1.5963595e-05 0.00021384181)
(0.00018960264 -1.4161705e-05 0.00018457579)
(0.00022271 2.2685461e-05 0.00021408505)
(0.00018148869 3.9956861e-06 0.00018542464)
(0.00018057541 -1.0867059e-05 0.00011430005)
(0.00023329759 1.4641013e-05 0.0002345253)
(0.00024680966 1.2307631e-05 0.00024140449)
(0.00016820876 -3.9893788e-06 9.5088746e-05)
(0.00019904374 1.4209122e-05 0.00019347274)
(0.00019612279 7.1902528e-06 0.00019404612)
(0.00024142787 1.1699161e-05 0.00023940186)
(0.00019435626 6.817783e-06 0.0001924265)
(0.00025818085 1.9300187e-05 0.00024692793)
(0.00023457817 1.518332e-05 0.00023539537)
(0.00019691121 -1.1956261e-05 9.1022995e-05)
(0.00016990406 -2.0308982e-06 9.5067571e-05)
(0.00017493237 -6.4385996e-06 0.00010343477)
(0.00025271686 2.0028045e-05 0.00024516728)
(0.00019545798 1.8066061e-05 0.00019178748)
(0.00024614891 2.2005317e-05 0.00024084898)
(0.00021162566 1.2089847e-05 0.00021670123)
(0.00021950551 1.3345588e-05 0.00021497317)
(0.00022730866 2.1139585e-05 0.00022012229)
(0.00020051025 1.6505089e-05 0.00018817775)
(0.00021220867 -2.7213438e-05 0.00016134551)
(0.0001748553 -8.6658952e-06 7.7740696e-05)
(0.00021188558 1.5408713e-05 0.00021122888)
(0.00016164353 -5.4651231e-06 9.0062573e-05)
(0.00023010465 -2.4742976e-05 0.00021432016)
(0.00016754143 2.6965178e-06 6.3406802e-05)
(0.00022895564 1.6623395e-07 8.7506476e-05)
(0.00023997282 -2.6443046e-05 0.00021635059)
(0.00023460377 1.0831666e-07 8.9649223e-05)
(0.00027978879 -2.4573568e-05 0.00013301633)
(0.00020466704 -2.1244285e-05 0.00010759406)
(0.00014090575 -8.1609884e-06 6.8745281e-05)
(0.00016580426 -8.5280122e-06 0.00011326709)
(0.00019783149 -1.4610496e-05 0.00014141969)
(0.00019258321 -1.1449083e-05 9.4416393e-05)
(0.00029455588 -1.4178114e-05 0.00012657863)
(0.00019435263 -1.8067822e-05 9.5918818e-05)
(0.00016256426 -1.2408638e-06 8.2210175e-05)
(0.00016050144 -5.2844434e-06 7.8859203e-05)
(0.00020232497 8.4417877e-06 0.00020849737)
(0.00023679162 -3.1108204e-05 0.0002091753)
(0.00023166463 -2.8591172e-05 0.00020451668)
(0.00021614188 -2.3882942e-05 0.00018272348)
(0.00021204248 -2.7543793e-05 0.00018096122)
(0.00024028504 1.116308e-05 0.00022865806)
(0.00019026824 1.248176e-05 0.00018932852)
(0.00020644706 -2.5154366e-05 0.00015413913)
(0.00020110374 -2.8029619e-05 0.0001628099)
(0.00018553844 -1.5641663e-05 0.00013919785)
(0.00016694636 -1.2379726e-05 0.00011748875)
(0.00022616344 1.0079536e-05 0.00023180329)
(0.00017902523 -1.914941e-05 0.0001344466)
(0.00019330549 -3.2838875e-06 0.00019119933)
(0.00021570101 -2.5266357e-06 8.2431308e-05)
(0.00022974407 1.1012468e-05 0.00022249817)
(0.00019039426 -4.0854445e-06 0.0001896383)
(0.00021792384 -1.6077223e-07 0.00021676132)
(0.00019317015 2.5969831e-06 0.00019590535)
(0.00015336693 -1.790044e-06 0.0001590899)
(0.00018764049 2.511148e-06 0.00019350813)
(0.00020312298 5.922751e-06 0.00020092466)
(0.00018271609 2.5857394e-05 8.1523205e-05)
(0.00017276483 1.9959048e-05 6.8215256e-05)
(0.00017973115 4.5301317e-06 0.00018519809)
(0.00019786165 8.7485588e-06 0.00020308289)
(0.00019700388 2.0281156e-06 0.00019630714)
(0.00016245155 6.538271e-06 0.00016393361)
(0.00020728864 1.0604889e-05 0.0002055789)
(0.00018122714 7.2681984e-06 0.00018134777)
(0.00021247514 1.1876503e-05 0.00020753228)
(0.00019996705 1.0626545e-05 0.00020556835)
(0.00019279758 2.2280784e-05 8.0988786e-05)
(0.0001843422 3.1035019e-05 8.68507e-05)
(0.00020960124 3.2546941e-05 0.00010359158)
(0.00017470923 -2.2875603e-05 0.00013608676)
(0.00019559677 -1.9627774e-05 0.00014506646)
(0.00021344087 3.5801569e-05 0.00010514786)
(0.00017421853 -4.5726808e-06 0.00011077554)
(0.00022154583 2.6976014e-05 9.8081872e-05)
(0.00019572455 2.3866422e-05 8.1716727e-05)
(0.00019908682 2.2113675e-05 8.5497797e-05)
(0.0002198923 3.1553685e-05 0.00010154021)
(0.00017902765 -1.9014402e-05 0.00013755416)
(0.00020632125 -2.0512558e-05 0.00020020923)
(0.00015408725 -2.1416563e-05 0.00012374475)
(0.00019952993 -1.5284717e-05 0.00014928388)
(0.00016055285 -9.7864805e-06 0.00010813666)
(0.00023318206 -2.817232e-05 0.00020920563)
(0.00020357089 -2.448148e-05 0.0001832637)
(0.00019889757 -2.3681288e-05 0.00018059096)
(0.00020518731 -2.2346459e-05 0.0001800525)
(0.00021334417 -2.1385001e-05 0.00019935811)
(0.0002091293 -2.1271505e-05 0.0001966664)
(0.00018304074 -1.0879226e-05 0.0001288699)
(0.00022258862 -2.556615e-05 0.00019891971)
(0.00018471072 -2.1525407e-05 0.00015678971)
(0.0002074535 -2.0680304e-05 0.00018946218)
(0.00023460377 -1.5741337e-05 0.00022028795)
(0.00021566183 -1.7630083e-05 0.00019331268)
(0.00021026971 -2.0185552e-05 0.00018042537)
(0.00022180015 -2.0276851e-05 0.00020055288)
(0.00021959078 -2.7874082e-05 0.0001958698)
(0.00018640581 -2.2325645e-05 0.00015902673)
(0.00021133242 -2.6193432e-05 0.00019748683)
(0.00018033716 -2.2259903e-05 0.00014571951)
(0.00020575036 -8.8651878e-06 0.00020163499)
(0.00021943368 -5.6074301e-06 0.00021505542)
(0.00020686454 -2.1017004e-05 0.00017952819)
(0.00018207192 -2.2011025e-05 0.00014527139)
(0.00017810124 -1.9430592e-05 0.0001482498)
(0.00019207704 -1.6431418e-05 0.00014856693)
(0.00017838951 -2.1801456e-05 0.00015346293)
(0.00018303051 -2.5667721e-05 0.00015136986)
(0.0001764769 -1.3875919e-05 0.00013244694)
(0.00022503364 -1.7746141e-05 0.00021612106)
(0.00018044383 -1.4098084e-05 0.00013444381)
(0.00033127983 -3.1220047e-05 0.00027045696)
(0.00018170781 -1.9298353e-05 0.00014628598)
(0.00019487887 2.2083929e-08 0.00018828121)
(0.00020190719 -2.4662076e-05 0.00016334935)
(0.00020074362 -1.6423287e-05 0.00015780384)
(0.00022924707 -1.9193265e-05 0.00020116619)
(0.00019394281 -1.9297743e-05 0.00015664642)
(0.00019511464 2.9638728e-06 0.00019433265)
(0.00018453192 -1.7238555e-05 0.0001503501)
(0.00020507929 -1.9031965e-05 0.0001917318)
(0.00017133078 -1.6249694e-05 0.00013549049)
(0.0002192816 -2.3084902e-05 0.00019678056)
(0.00021167042 -1.7272185e-05 0.00016205325)
(0.00031783584 -4.2585826e-05 0.00026918834)
(0.00017518252 -1.7666044e-05 0.00014174655)
(0.00020430701 -1.2439501e-05 0.00015520399)
(0.00016758154 -2.0203343e-05 0.00014720865)
(0.00020681987 -8.8935315e-06 0.00015624001)
(0.00018294387 -1.8913589e-05 0.00015224753)
(0.00023117689 -1.5701416e-05 0.00021866362)
(0.00021046787 -2.0950488e-05 0.00020028898)
(0.00017862244 -1.1362932e-05 0.00012496702)
(0.00019817023 -1.3958928e-05 0.00015481314)
(0.00018936281 -1.6658457e-05 0.00015048108)
(0.00031372645 -3.3165013e-05 0.00027155684)
(0.00021913822 -2.0825442e-05 0.00020078777)
(0.00019243922 -1.9472842e-05 0.00015687829)
(0.00015000367 -1.6151391e-05 0.00012626994)
(0.00020509592 -1.7359195e-05 0.00018871834)
(0.00019562527 -1.1963192e-05 0.00019540004)
(0.00015060311 -1.5971427e-05 0.00013019951)
(0.00019497701 -1.935498e-05 0.00016709036)
(0.00017703315 -6.3539294e-06 0.00012043307)
(0.00016660224 -8.4311709e-06 0.00012467189)
(0.00020200298 -1.2283542e-05 0.00015299396)
(0.00020449858 -1.7275781e-05 0.00019269379)
(0.00020860256 -1.6091766e-05 0.00018971551)
(0.00016320847 -1.028331e-05 0.00011940907)
(0.00018206894 -1.1681551e-05 0.00013859609)
(0.0002131512 -4.2106069e-06 0.00021375463)
(0.00019653975 -1.7470266e-05 0.00019034965)
(0.00021437289 -1.5903608e-05 0.00019340946)
(0.00018271155 -1.6807723e-06 0.00018536709)
(0.00015916041 -9.0652375e-06 0.00011188023)
(0.00019483559 -1.4233237e-05 0.00018324322)
(0.00018515364 -1.4306565e-05 0.00018292564)
(0.00018682098 -1.6141996e-07 0.00018715311)
(0.00022365045 -2.266215e-05 0.0001998196)
(0.00020103571 -1.8250963e-05 0.00016832393)
(0.00019533692 -1.6304961e-05 0.00019226699)
(0.00022737336 -1.8742794e-05 0.00019865416)
(0.00015575297 -9.7914421e-06 0.00016052805)
(0.00015600841 -7.3018073e-06 0.00010825499)
(0.00019360536 -1.8105893e-05 0.00016597797)
(0.00019548355 -1.5310772e-05 0.00019240138)
(0.00014921899 -4.3154139e-06 0.0001050515)
(0.00020799739 -1.5815566e-05 0.00018358171)
(0.00020137605 -8.5761298e-06 0.00019329327)
(0.00013181407 -1.2396383e-05 9.9039298e-05)
(0.00015795652 -2.8413214e-06 0.00011421831)
(0.00015745234 -8.2834571e-06 0.00015816039)
(0.00017714493 -2.044349e-06 0.00011728215)
(0.00016232061 -7.3480397e-06 0.00010722744)
(0.00015027064 -4.7607651e-06 0.0001074198)
(0.00016163445 7.0567284e-06 0.00016496612)
(0.00019143053 9.9304587e-06 0.00018710513)
(0.00015718967 -7.9704734e-06 0.00011547229)
(0.00013661637 -1.0450058e-05 0.00010520058)
(0.00019904223 -1.0056867e-05 0.00019334412)
(0.00020691219 -5.9094327e-06 0.00020989489)
(0.00021072496 -1.5452136e-05 0.00019196649)
(0.0001726053 -4.7483101e-06 0.00012610085)
(0.00018204977 -6.3634383e-06 0.00017924056)
(0.00023438589 -1.3672961e-05 0.00022257442)
(0.0002238404 -1.5810345e-05 0.0001932772)
(0.00020350856 -1.6121427e-05 0.00018153426)
(0.00024213213 -1.1409912e-05 0.00023047217)
(0.00018071645 -6.778252e-06 0.00018468709)
(0.00018734842 -1.8928646e-06 0.00018514673)
(0.00018379045 -1.3686003e-05 0.00016888664)
(0.00020741767 -1.2795715e-05 0.00018929217)
(0.00019364409 -4.5819158e-06 0.00019043712)
(0.00024390376 -1.141726e-05 0.00022913061)
(0.00019511222 -7.3462546e-06 0.00019247281)
(0.00021202238 -4.1875161e-06 0.0002028736)
(0.00022022712 -5.1972278e-06 0.00020846843)
(0.00021789639 -1.736094e-05 0.00019168354)
(0.00020733786 -9.1853952e-06 0.000205887)
(0.00019267022 -2.2362343e-05 0.00016906283)
(0.00021888647 -7.4485858e-07 0.00021737649)
(0.00023645133 -1.2612153e-05 0.00022610351)
(0.00021652567 -6.9091566e-07 0.00021302998)
(0.00020668825 -1.5888996e-06 0.0002012333)
(0.00021955846 3.2234661e-06 0.00021435125)
(0.00021431883 -1.1818817e-05 0.00020060677)
(0.00020256984 -1.3405877e-05 0.00018770396)
(0.00016211188 -7.8585631e-06 0.00016120415)
(0.00023689298 -1.5377915e-05 0.00021461459)
(0.00018064303 -1.2651932e-05 0.00016670727)
(0.00020830642 -1.5400485e-05 0.00019659728)
(0.00020468102 -1.8262303e-05 0.00020103894)
(0.00016375241 -8.0293392e-06 0.00016369034)
(0.00023184291 -1.5188024e-05 0.00020982879)
(0.00018816714 -1.7938156e-05 0.00016833679)
(0.00021678682 -1.6691436e-05 0.00020503516)
(0.00017331334 -1.6793394e-05 0.00016277046)
(0.00021679006 -1.759145e-05 0.00020074801)
(0.00017597004 -1.2571766e-05 0.00016556348)
(0.00020361656 -1.3686429e-05 0.00018159503)
(0.00020855229 -4.8501835e-06 0.00020052136)
(0.00020374037 -6.6911664e-06 0.00020614049)
(0.00020001381 -1.2845504e-05 0.00018199599)
(0.0001902981 -1.3137694e-05 0.00017147153)
(0.00017270943 -1.0735394e-05 0.00016331975)
(0.00019473242 -1.2409704e-05 0.00017886292)
(0.00022465537 -1.3939424e-05 0.00020544233)
(0.00017889643 -1.5889612e-05 0.00015271578)
(0.00020000036 -5.4463092e-07 0.00020518298)
(0.00019945896 -1.2291944e-05 0.00018174656)
(0.0002116745 5.542749e-06 0.00021497087)
(0.00019243896 -5.8287179e-06 0.00018722277)
(0.00020014448 8.0575785e-06 0.00019636587)
(0.00018504851 -1.635703e-05 0.00017088675)
(0.00021573443 -1.5170409e-05 0.00020339106)
(0.00018905917 -1.4443823e-05 0.00018082335)
(0.0001850238 -1.6256069e-05 0.00017031253)
(0.00016093993 -1.3818593e-05 0.00014309286)
(0.00019558111 -1.2316566e-05 0.00017143605)
(0.00015537011 -1.5973517e-05 0.00014646514)
(0.00020087931 -1.7197163e-05 0.00018093541)
(0.00021706316 -5.2543959e-06 0.00022137986)
(0.00022045378 -7.8498818e-07 0.00021857215)
(0.00018928746 -1.7174624e-05 0.00017026423)
(0.00015607259 -1.5032578e-05 0.00014229074)
(0.00018575229 -1.5489202e-05 0.00016162216)
(0.00016567769 -1.3964327e-05 0.00014436137)
(0.00022639071 -9.4906035e-06 0.00021495254)
(0.00020047622 3.0479461e-06 0.00020270434)
(0.00019218015 -1.7283155e-05 0.00016706543)
(0.00018275703 -1.6818586e-05 0.00016095155)
(0.00017115601 -9.9536823e-06 0.00016551292)
(0.00016733517 -1.4615044e-05 0.00015467409)
(0.00013725233 -1.4339261e-05 0.00012304614)
(0.00018914835 -4.9964448e-06 0.00019053587)
(0.00013946021 -1.4866205e-05 0.0001284427)
(0.00016540087 -1.5712235e-05 0.00014437417)
(0.00020100188 -1.4740047e-05 0.00016787422)
(0.00017379552 -1.2934414e-05 0.00015890386)
(0.00021133922 4.7918048e-06 0.0002128239)
(0.00014870579 -1.1118089e-05 0.0001439346)
(0.00023113559 -9.0026632e-06 0.00021451036)
(0.00019117496 -4.9332149e-06 0.00018441489)
(0.00017135078 -1.3981686e-05 0.00014615801)
(0.00017327086 -1.5332582e-05 0.00015041473)
(0.00018914115 -2.0027764e-06 0.00018593562)
(8.7309383e-06 -1.9133288e-05 -9.2332313e-06)
(0.00017479159 -1.1231945e-05 0.00016007011)
(0.00016489593 -1.6920896e-05 0.00015145407)
(0.00020796332 2.3363441e-06 0.00020910633)
(0.00016991658 -1.3790462e-05 0.00015803347)
(0.00017932724 6.9460825e-06 0.00018467475)
(0.00021048347 8.8312419e-07 0.00020800787)
(0.00019305443 -1.5510676e-05 0.00016525348)
(0.00019327493 -1.6831867e-05 0.00016535983)
(0.00020876946 1.7473654e-06 0.00020371531)
(0.00021252925 5.6264588e-06 0.00020934215)
(0.00018580546 -3.7405903e-06 0.00018400465)
(0.000187937 -5.4275037e-07 0.00018573906)
(1.2467214e-05 -1.3824049e-05 -7.8913498e-06)
(0.00018420997 8.5753152e-06 0.00018169891)
(0.0002534177 1.206834e-05 0.00025146486)
(0.00016727429 -1.5912085e-05 0.0001424335)
(0.00018385249 6.4639084e-06 0.00018241928)
(0.00022203125 4.5721033e-06 0.00021018336)
(0.00018418631 8.9722264e-07 0.00018503691)
(0.00018876808 -1.5516613e-05 0.00015524854)
(0.00018144583 8.2821356e-06 0.00018285393)
(0.00017813985 7.2768577e-06 0.0001798357)
(0.00021514977 5.6275914e-06 0.00021070493)
(0.00018061999 -2.7139121e-06 0.00017402826)
(0.00016974407 -1.6631298e-05 0.00014562806)
(0.00026251345 1.4709597e-05 0.00025018263)
(0.00021336357 3.7793769e-06 0.00020746004)
(0.00018865647 -7.548619e-07 0.00018400091)
(0.00013810236 -1.5606113e-05 0.00012148844)
(0.00017423474 -1.1672722e-06 0.00016650763)
(0.00018044727 4.3189243e-06 0.00018137243)
(0.00020074662 6.9551672e-06 0.0001984061)
(0.00018513438 3.9665109e-07 0.0001856818)
(0.00017953763 3.4614722e-06 0.00017637183)
(0.00018374796 5.435992e-06 0.00018117483)
(0.00018048621 -1.7420649e-05 0.00015096693)
(0.00016846145 -2.2401856e-06 0.00016478833)
(0.00018371771 -1.5381667e-05 0.0001512599)
(0.00020526475 1.3809031e-06 0.0001961966)
(0.00019167421 -1.2411986e-05 0.0001531912)
(0.00016674909 -1.5961951e-06 0.00016011681)
(0.00016503686 -1.4685979e-05 0.00014840098)
(0.00019964564 -6.9595449e-06 0.00019388781)
(0.00016286674 -1.9131061e-06 0.00015801526)
(0.00018591579 -1.6534815e-05 0.00016249595)
(0.00015225095 7.0906066e-06 0.00014966776)
(0.00018056502 4.3724762e-06 0.00017879438)
(0.0001848841 -1.4967154e-05 0.00015336346)
(0.00020069219 3.3858478e-06 0.00019876932)
(0.00020952048 7.6475259e-06 0.00019830691)
(0.00016794346 -1.2167772e-05 0.00013494893)
(0.00022183042 -1.0613198e-05 0.00020139883)
(0.00019374026 1.014847e-05 0.00018383023)
(0.00016657459 -9.9651865e-07 0.00016592201)
(0.00021034023 4.1437616e-06 0.0001994613)
(0.00018229658 -5.6792984e-06 0.00013646219)
(0.00017216951 -8.1683265e-06 0.00012797899)
(0.00016684196 1.7432044e-06 0.00016389887)
(0.00017823767 -1.3334444e-05 0.00014744143)
(0.00022800679 -1.1401705e-05 0.00020797034)
(0.00016411776 -1.3776466e-05 0.00014463455)
(0.00015403053 -1.5420635e-05 0.00014818535)
(0.00020601013 5.2539077e-06 0.00019475936)
(0.0002116457 -1.0975346e-05 0.00019803517)
(0.00017693184 3.9924936e-06 0.00016992843)
(0.00019649037 4.4943118e-06 0.00019285048)
(0.00020798702 7.1493588e-06 0.00019604515)
(0.00019321816 9.9591743e-06 0.00018092286)
(0.00018672801 6.7757973e-06 0.00018980561)
(0.00020152257 7.8958648e-06 0.00019325021)
(0.00022338029 -1.0450027e-05 0.00021272306)
(0.00016668199 6.8935831e-06 0.00015782781)
(0.00017654727 -1.8805236e-05 0.00015935067)
(0.0001325822 8.3964822e-06 0.00013318926)
(0.00018910147 1.0045266e-05 0.00018007221)
(0.0001713837 1.156181e-05 0.00017218281)
(0.00018456834 -1.2642724e-05 0.00015113298)
(0.0001688546 4.4918203e-06 0.0001688884)
(0.00018601039 1.4560939e-05 0.00017782988)
(0.00014703824 -1.190905e-05 0.0001161754)
(0.00016354845 -1.3016696e-05 0.00013223185)
(0.00015919557 5.5197436e-06 0.00015585972)
(0.00022554637 -1.900985e-05 0.00018590606)
(0.00017810392 1.2216213e-05 0.00017022766)
(0.00018075406 -5.6551864e-06 0.00017702219)
(0.00014696733 -1.3553993e-05 0.00011397023)
(0.00017203882 -1.8086478e-05 0.00014663068)
(0.00016918079 -9.1269515e-06 0.00015772292)
(0.00016789535 -1.6020105e-05 0.00013957208)
(0.00017712011 -1.762837e-05 0.00014923478)
(0.00023641484 -1.6304243e-05 0.00018837551)
(0.00021411557 1.2439561e-05 0.00021799128)
(0.00015754017 -1.5296262e-05 0.0001422363)
(0.00015588392 -1.2426201e-05 0.00012286361)
(0.00017639845 -5.0360557e-06 0.00017662397)
(0.00020199198 -6.8334107e-06 0.00019243629)
(0.00017759789 -3.1453533e-06 0.00017683875)
(0.00014974556 -1.4078073e-05 0.00013522168)
(0.00020744863 9.1911074e-06 0.00019955985)
(0.00016600344 -1.1685331e-05 0.00012714516)
(0.00016580293 -1.5205004e-05 0.00014478457)
(0.00016248024 -1.8114122e-05 0.00014482161)
(0.00016180373 -1.6437585e-05 0.00013597408)
(0.0001355717 -8.7977736e-06 0.00010631789)
(0.00014557796 -1.5626123e-05 0.000120295)
(0.00015862688 -1.8453952e-05 0.00013592775)
(0.00015102891 -1.5339223e-05 0.00012050605)
(0.00019206833 1.1858e-05 0.00018649477)
(0.00015448732 -1.4694241e-05 0.00012465909)
(0.00017931135 -1.5798899e-05 0.00015385467)
(0.00016655707 -1.5182992e-05 0.00013858851)
(0.00022481432 -1.1230802e-05 0.00020733929)
(0.00020489181 -1.583385e-05 0.00016734352)
(0.00015005735 -1.7714208e-05 0.00012165861)
(0.000170682 -1.9636228e-05 0.00014923716)
(0.00021614001 -1.4390272e-05 0.00020321335)
(0.00016278291 -1.7948767e-05 0.00013689742)
(0.00013979807 -1.9037652e-05 0.00011463946)
(0.0001805614 -1.6263662e-05 0.00014983919)
(0.00017311053 -1.9294381e-05 0.00013412189)
(0.00013847811 -1.8018333e-05 0.00011137219)
(0.00015362868 -1.3368303e-05 0.00011735096)
(0.00015555376 -1.6453204e-05 0.00012351722)
(0.00017293839 -1.4888584e-05 0.00013442087)
(0.00016366607 -1.7669397e-05 0.00013147068)
(0.00017882286 -1.3869411e-05 0.00013583361)
(0.00016322727 -1.5964576e-05 0.00012869211)
(0.0001323231 -1.7582103e-05 0.00011297869)
(0.00015791394 -1.7425215e-05 0.00012850454)
(0.00017420383 -1.677309e-05 0.00014458161)
(0.00013245342 -1.7202069e-05 0.00010959456)
(0.00016184906 -2.1762293e-05 0.00013543858)
(0.00016972532 -1.7121835e-05 0.00014219156)
(0.0001877062 -1.8802507e-05 0.00015218339)
(0.00016257177 -1.6010597e-05 0.00012880848)
(0.00021252669 -1.441997e-05 0.0001704304)
(0.00016084123 -1.3804277e-05 0.000124985)
(0.00018098914 -2.0553562e-05 0.0001475981)
(0.00016737572 -2.0049484e-05 0.00014384968)
(0.00013037363 -1.894468e-05 0.00011787119)
(0.00018000941 -1.1933666e-05 0.00013349396)
(0.0001789955 -1.7561617e-05 0.00015081509)
(0.00017412244 -1.8463237e-05 0.00014941447)
(0.00015877186 -1.099143e-05 0.00011840047)
(0.00017761055 -2.0395218e-05 0.00015201238)
(0.00016616594 -1.509877e-05 0.00014154356)
(0.00017864773 -1.0706136e-05 0.00016348565)
(0.0001650552 -1.7050101e-05 0.00012758142)
(0.00016114733 -1.6660889e-05 0.00014055336)
(0.00016522058 -9.3728938e-06 0.00012363509)
(0.00015517914 -1.7379783e-05 0.00013949126)
(0.0001763985 -2.1417498e-05 0.0001586972)
(0.00013167891 -1.1008854e-05 0.0001019599)
(0.00016160952 -1.3173457e-05 0.00012784445)
(0.00022661973 -6.2207326e-06 0.00017309461)
(0.00017056579 -1.8138865e-05 0.00013170585)
(0.00015862956 -1.6374257e-05 0.00011453138)
(0.00017640612 -1.2775553e-05 0.00012912372)
(0.00023122128 -1.8296683e-05 0.00018690569)
(0.00015100347 -2.1025487e-05 0.00012057269)
(0.00017314661 -1.0991291e-05 0.00013101606)
(0.00013414118 -1.5913823e-05 0.0001046592)
(0.00016391037 -1.320469e-05 0.00012239229)
(0.00017158867 -1.1225216e-05 0.000125704)
(0.00017471909 -1.3215808e-05 0.0001606984)
(0.00016803812 -1.5495986e-05 0.00012349529)
(0.00016095606 -1.3012624e-05 0.00011252772)
(0.000159326 -1.6723764e-05 0.00012539863)
(0.00016850742 -9.3223858e-06 0.00012162535)
(0.00018744041 -7.7740665e-06 0.00013294819)
(0.00015284957 -1.2585346e-05 0.000116911)
(0.00019441751 -5.4228781e-06 0.00013583508)
(0.00016610617 -1.1131003e-05 0.00013050024)
(0.00016176879 -1.3961139e-05 0.00011665575)
(0.00013531443 -1.061387e-05 0.00010118786)
(0.00016686912 -5.4798515e-06 0.00011739204)
(0.00019997393 -1.8999854e-05 0.00018768028)
(0.00018066701 -8.3072077e-06 0.00013486941)
(0.00016127218 -1.2427717e-05 0.00011363337)
(0.00015539612 -1.6951786e-05 0.00014488041)
(0.00016418039 -1.2599379e-05 0.00011924136)
(0.00016948819 -1.2841914e-05 0.00012202323)
(0.00017986547 -5.2357341e-06 0.00012440529)
(0.00014653573 -1.4866364e-05 0.00013361535)
(0.00014955554 -1.3417399e-05 0.0001222424)
(0.00017245164 -9.2557392e-06 0.00012117052)
(0.00015808857 -1.2128123e-05 0.00012201783)
(0.00023951719 -1.3680748e-05 0.00018840287)
(0.0002205619 -6.9507409e-06 0.00016924374)
(0.00015637023 -1.7605862e-05 0.0001198248)
(0.00016972877 -7.5801979e-06 0.00012000691)
(0.00015008326 -2.0056089e-05 0.00012661738)
(0.00018670554 -7.6005018e-06 0.00013192247)
(0.00019706608 -1.1089059e-05 0.00014857682)
(0.00018365021 -1.5433081e-05 0.00015912511)
(0.00018702823 4.2087532e-07 0.00012704125)
(0.00016988388 -1.5201874e-05 0.00012958082)
(1.2528629e-05 -2.1617432e-05 -9.157755e-06)
(0.0001895263 -1.4915525e-05 0.00014557676)
(0.00015392031 -7.7159931e-06 0.00011001581)
(0.00015111288 -1.0556166e-05 0.00011125349)
(0.00016182118 -1.1068723e-05 0.00012177866)
(0.00017619192 -1.1587061e-05 0.00013257527)
(0.00016969006 -9.7791526e-08 0.00011890249)
(0.00016566533 -5.9693986e-06 0.00011211906)
(0.00014971515 -8.2516176e-06 0.00010533019)
(0.00015035426 -1.7496057e-05 0.00011697194)
(0.00018511029 -1.3192518e-05 0.00014166406)
(0.00014796237 -1.5672946e-05 0.00011555204)
(0.00016919103 -1.0638082e-05 0.00011944188)
(0.00022623295 -1.5992392e-05 0.00017944707)
(0.000174768 -1.9386548e-05 0.00015757828)
(0.00016464864 -9.5013951e-06 0.00011955816)
(0.00014920994 -1.4551415e-05 0.00011504966)
(0.00015270778 -2.2499938e-05 0.00012257868)
(0.00016951763 -9.5835111e-06 0.00012026727)
(0.00019305336 -1.3912432e-05 0.0001495209)
(0.00016799154 -1.9894702e-05 0.00012889725)
(0.00016278357 -1.4132673e-05 0.0001212696)
(0.00013406779 -1.7293462e-05 0.0001242444)
(0.00019967812 -9.6252184e-06 0.00014841192)
(0.00016178949 -1.4895279e-05 0.00011985867)
(0.00014652896 -8.5128866e-06 0.00010043747)
(0.00012650189 -1.6633325e-05 9.6357162e-05)
(0.00016215313 -4.761292e-06 0.00011133413)
(0.00017884063 -1.7790634e-05 0.00015124848)
(0.00015732438 -1.0132133e-05 0.00011272122)
(0.00015859866 -1.4725769e-05 0.00011567538)
(0.00012951532 -1.8384029e-05 0.00010208725)
(0.00020461487 -8.0499596e-06 0.00015182567)
(0.00022070096 -1.2411599e-05 0.00017062834)
(2.1709144e-05 -1.508138e-05 -2.0913007e-06)
(0.00012627416 -4.4848809e-06 8.6412258e-05)
(0.00015701631 -1.8571275e-05 0.00013435915)
(0.00019332399 -7.6653442e-06 0.00013938896)
(0.00023173361 -1.2599963e-05 0.00018345514)
(0.00016278452 -1.3645887e-05 0.0001223673)
(0.00019044756 -4.5105358e-06 0.00013155905)
(0.00018629072 -1.5940731e-05 0.00013848925)
(0.00017984992 -1.1070857e-05 0.00012958483)
(0.00018512636 -1.1485757e-05 0.00013023049)
(0.00013922237 -3.5527413e-06 9.5812154e-05)
(0.0001819114 -1.2627568e-05 0.0001292655)
(0.00016094642 -1.722972e-05 0.00014759015)
(0.00017554301 -1.540512e-05 0.00015636413)
(0.00016112868 -1.6142017e-05 0.0001159012)
(0.00019706747 -1.8243036e-05 0.00019278466)
(0.00020087047 -1.8691757e-05 0.00016245121)
(0.00017605555 -4.523501e-06 0.00011923956)
(0.0001640199 -9.2567307e-06 0.0001163251)
(0.0001539082 -1.1024641e-05 0.00011338583)
(0.00017190798 -7.2305725e-06 0.00011652585)
(0.00016493618 -1.1702108e-05 0.0001187337)
(0.00016725124 -1.1406962e-05 0.00011538878)
(0.00016140534 -1.3868226e-05 0.00011442295)
(0.00015209011 -9.9788804e-07 0.00010020463)
(0.00015050635 -9.4178168e-06 0.00010877173)
(0.0001986397 -1.1824199e-05 0.00015187277)
(0.00018936456 -6.3061224e-06 0.0001299028)
(0.0001541076 -6.7333467e-06 0.00010665983)
(0.00016884978 -2.1484021e-05 0.00015656915)
(0.00016725163 -7.7009313e-06 0.00011083407)
(0.00014983987 -1.084846e-05 0.00010789719)
(0.00017476243 -2.1621657e-05 0.00014823391)
(0.00017706219 -1.121667e-05 0.00012192307)
(0.00016217312 -1.6619719e-05 0.00012612092)
(0.00012384835 -7.338003e-06 8.6976664e-05)
(0.00014672907 -6.1002931e-06 9.9795937e-05)
(0.00015077316 -1.6832e-05 0.00011923844)
(0.00016855475 -4.1800684e-06 0.0001093221)
(0.00014665891 -4.3241871e-06 9.6952679e-05)
(0.0001492919 -1.2812717e-05 0.00011378372)
(0.00015240979 -8.9486169e-06 9.9396561e-05)
(0.00012530792 -9.9552914e-06 9.3951273e-05)
(0.00016921668 -1.3606154e-05 0.00012869614)
(0.00021380312 -1.7812861e-05 0.00017252473)
(0.00014506744 -5.3319345e-06 9.8784231e-05)
(0.00012323015 -9.5002575e-06 9.3684408e-05)
(0.00016041877 -1.426487e-05 0.00011224654)
(0.00019331771 -1.3502742e-05 0.00014959759)
(0.00022103804 -1.9607328e-05 0.00017877606)
(0.00013220115 -1.105138e-05 9.5108052e-05)
(0.00016872004 -1.7350722e-05 0.00015593731)
(0.00016129886 -1.8272378e-05 0.00015448151)
(0.00014168109 -1.6175194e-05 0.00013585861)
(0.00016853622 -1.4796486e-05 0.00016158773)
(0.00014469847 -1.4320859e-05 0.00013756051)
(0.00011958921 -6.5130125e-06 8.3647608e-05)
(0.00015533196 -1.800742e-06 0.00010666928)
(0.00016919707 2.6254027e-06 0.00011062721)
(0.00020630896 -9.5728419e-06 0.0001593592)
(0.0001658333 -1.3230883e-05 0.0001625836)
(0.0001602126 -1.1870945e-05 0.00015940647)
(0.0001645671 -1.0762961e-05 0.00015723631)
(0.00019841621 -1.3036621e-05 0.000157027)
(0.00013846583 -6.8406531e-06 0.00010150821)
(0.00015223952 -9.7835976e-06 0.00014820085)
(0.00022621089 -1.1136519e-05 0.00017581153)
(0.00021295546 -1.4410059e-05 0.00016821965)
(0.00016462624 -6.7600749e-07 0.00010831393)
(0.00017312262 -1.3621002e-06 0.00012172445)
(0.00015362547 -7.7867965e-07 0.00010401248)
(0.00023181051 -1.3851666e-05 0.00018574894)
(0.00012019762 -1.0503491e-05 8.7903581e-05)
(0.0001793073 -1.9690075e-05 0.00015401702)
(0.00018921967 -8.0121614e-06 0.00014022849)
(0.00017080679 -1.7564295e-05 0.00013098784)
(0.00013471605 -8.3919131e-06 0.00010116584)
(0.00016732349 -4.9605249e-06 0.00011726977)
(0.00018325822 -1.0946285e-05 0.00013705164)
(0.00016277205 -7.8659478e-06 0.00011408429)
(0.0001545213 -4.1848178e-06 0.00010959277)
(0.00017330057 -1.4920688e-05 0.00013362457)
(0.00014573183 -2.8083165e-06 0.00010009162)
(0.00015961302 2.850165e-06 0.00010765324)
(0.00014171035 -5.3391555e-06 0.00010040825)
(0.00014831171 -9.283793e-06 0.00011067784)
(0.00013065265 -4.5979409e-06 9.4220912e-05)
(0.0001491694 -7.4128753e-06 0.00010795233)
(0.00014884924 -7.7434094e-06 0.00011100737)
(0.00015388349 -6.3067036e-07 0.00010278678)
(0.00017378835 -6.1465665e-06 0.00013042565)
(0.00014436598 -3.9892747e-06 0.00010049208)
(0.00014907941 3.6408364e-07 0.00010602486)
(0.00015257705 -1.4040113e-05 0.00011725619)
(0.00018012597 -1.1968023e-05 0.00013869205)
(0.00016780786 -1.0552979e-05 0.00012777069)
(0.00017356751 -1.360425e-05 0.00013600526)
(0.00014712886 -9.2956619e-06 0.00011038096)
(0.00014307211 -3.0786345e-06 0.00010155085)
(0.00012887699 1.1617982e-06 9.1166965e-05)
(0.00016765057 -9.0984063e-06 0.0001283107)
(0.00014419759 2.2751071e-06 0.0001025209)
(0.00015879639 -4.8643931e-06 0.00011591842)
(0.00016503279 -1.1907154e-05 0.00013174945)
(0.00013675984 -7.0337196e-06 0.00010099969)
(0.000158817 -5.0363824e-06 0.00012134451)
(0.00018151362 -9.9709121e-06 0.0001440226)
(0.00015180668 -8.7978506e-06 0.0001180644)
(0.00019685115 -1.7563079e-05 0.00015770476)
(0.0001303107 -8.4399835e-06 0.00010053408)
(0.00014948378 -8.3930008e-06 0.00011356383)
(0.00015281787 -8.6412514e-06 0.0001171154)
(0.00017336743 -1.3731496e-05 0.00014073201)
(0.00018137171 -1.3803811e-05 0.00014911755)
(0.00018547682 -1.4986428e-05 0.00015147977)
(0.0002074238 -1.4088148e-05 0.00016700693)
(0.00014830658 -1.3755373e-05 0.00011867653)
(0.00016227922 -1.7095641e-05 0.00014119749)
(0.00013963585 -1.3609907e-05 0.00012047691)
(0.00019988892 -1.6748904e-05 0.00016248789)
(0.0001707029 -1.7316171e-05 0.00014560335)
(0.00014692674 -1.1009792e-05 0.00011504796)