/*--------------------------------*- C++ -*----------------------------------*\
  =========                 |
  \\      /  F ield         | OpenFOAM: The Open Source CFD Toolbox
   \\    /   O peration     | Website:  https://openfoam.org
    \\  /    A nd           | Version:  11
     \\/     M anipulation  |
\*---------------------------------------------------------------------------*/
FoamFile
{
    format      ascii;
    class       volVectorField;
    location    "10000";
    object      wallShearStress;
}
// * * * * * * * * * * * * * * * * * * * * * * * * * * * * * * * * * * * * * //

dimensions      [0 2 -2 0 0 0 0];

internalField   uniform (0 0 0);

boundaryField
{
    wall-fluid_domain
    {
        type            calculated;
        value           nonuniform List<vector> 
43271
(
(-0.00025487506 -8.5012993e-06 0.00010436638)
(-0.000229762 -1.0532348e-06 8.9255958e-05)
(-0.00042605784 -4.0065567e-05 0.00018943904)
(-0.00030634841 -7.0654403e-06 0.00012827767)
(0.00011579651 5.1095438e-05 -4.0601472e-05)
(-0.00030009039 -6.8691121e-06 0.00012764036)
(-0.00038824062 -4.2284649e-05 0.00017957907)
(-0.00029793074 -1.1133169e-05 0.00012853822)
(-0.00031454057 -8.5548655e-06 0.00013671003)
(-0.00030597194 -1.0617255e-05 0.00012801826)
(-0.0003756405 -4.0095057e-05 0.0001835355)
(-0.00014393942 -7.4703104e-06 7.5091418e-05)
(-0.00031081145 -8.5035543e-06 0.00013024266)
(-0.00032042166 -1.2589661e-05 0.0001451895)
(-0.00033400335 -1.5536049e-05 0.00015644321)
(-0.0002892547 -1.323068e-05 0.00013651319)
(-0.00036738257 7.3262374e-05 1.5159803e-05)
(-0.00025213345 -1.0501317e-05 0.00012499282)
(-0.00029966171 -1.0365461e-05 0.00012758545)
(-0.00031217735 -1.2425217e-05 0.00015445584)
(-0.00029769729 -1.2450556e-05 0.0001287396)
(-0.00028083533 -1.5944387e-05 0.00013569929)
(-0.00022393241 -9.9669821e-06 9.1877397e-05)
(-0.00024753999 -1.643976e-05 0.00012547958)
(-0.00033512413 -1.5783668e-05 0.00015719838)
(-0.00028879263 -1.9022328e-05 0.0001450876)
(-0.00028654167 -1.2463427e-05 0.00015972355)
(-0.00027207526 -1.1315143e-05 0.0001153988)
(-0.00031853855 -7.2916256e-06 0.00013785599)
(-0.00032289571 -1.7424598e-05 0.0001534752)
(-0.00030685987 -1.7345021e-05 0.00013711282)
(-0.00024805556 -1.447403e-05 0.00012550703)
(-0.00029544714 2.0644954e-06 8.2547935e-05)
(-0.00022427209 -1.3724175e-05 0.00011176445)
(-0.00025851841 -6.0779491e-06 0.00010705212)
(-0.00029054249 -1.7670002e-05 0.00014279165)
(-0.0002935464 -2.1341155e-05 0.00015157406)
(-0.00026795464 -1.4754915e-05 0.00012302014)
(-0.00029227674 -1.3911942e-05 0.00016235922)
(-0.00026920141 -1.6175505e-05 0.00013965961)
(-0.0003185555 -2.3807384e-05 0.00015283698)
(-0.00028491373 -1.0352954e-05 0.00011992777)
(-0.00029872111 -1.7629413e-05 0.00015181269)
(-0.00026930789 -1.9464679e-05 0.00012290307)
(-0.00031171485 -1.0061036e-05 0.00013430204)
(-0.00023564975 -5.8593994e-06 9.6604566e-05)
(-0.00023588153 -7.2553622e-06 9.4895662e-05)
(-0.00032483842 -1.9113553e-05 0.00015256298)
(-0.00029670877 -2.1116594e-05 0.00014540652)
(-0.00026080034 -1.6294336e-05 0.00012297401)
(-0.00030619434 -1.7978795e-05 0.00014613934)
(-0.0003060171 -1.0059471e-05 0.00013381472)
(-0.0003179606 -2.1039447e-05 0.00016344241)
(-0.00025632858 1.4869796e-06 9.2587014e-05)
(-0.00031451964 -1.8182863e-05 0.00013957939)
(-0.00033010163 -1.8677365e-05 0.00016402262)
(-0.00026141142 -1.2366533e-05 0.00010851238)
(-0.00030175331 -1.9678252e-05 0.00014356489)
(-0.00026561961 -1.3798959e-05 0.00011843725)
(-0.000279417 -1.6101512e-05 0.00012134037)
(-0.00029454974 -1.6711552e-05 0.00012540929)
(-0.00022850252 -3.8612813e-06 8.6647002e-05)
(-0.00029946556 -2.1140083e-05 0.00014636414)
(-0.0002682154 -1.4190032e-05 0.0001204494)
(-0.00030309131 -1.8289498e-05 0.0001439801)
(-0.00030646383 -1.9737771e-05 0.00014480324)
(-0.00026257622 -1.4969238e-05 0.00011697197)
(-0.000313451 -1.8082159e-05 0.00014273455)
(-0.0002275689 -1.0965267e-05 9.7259579e-05)
(-0.00034315991 8.0632975e-05 4.7555839e-06)
(-0.00030906433 -1.5934419e-05 0.00014496305)
(-0.0002259918 -7.3660993e-06 9.9799258e-05)
(-0.00032144433 -1.4544816e-05 0.00014140587)
(-0.00025692809 -1.552428e-05 0.00012005382)
(-0.00020938953 9.0414468e-05 -8.6330354e-06)
(-0.00025132677 -1.8896238e-05 0.0001135821)
(-0.00022375006 -9.4590744e-06 9.6775155e-05)
(-0.00024818154 -1.1426998e-05 0.00010935984)
(-0.00027286511 -1.6931285e-05 0.00012006859)
(-0.00027677338 -1.1091661e-05 0.0001172613)
(-0.0002340492 -5.332366e-07 9.393565e-05)
(-0.00024558692 -1.2833076e-05 0.00010906763)
(-0.00024089613 -1.4762622e-05 0.00010349998)
(-0.00023599653 -1.1208881e-05 0.00010390788)
(-0.00023038049 -9.4572706e-06 9.9165568e-05)
(-0.00021561303 9.5990058e-05 -5.7541939e-06)
(-0.00023732575 -1.2676915e-05 0.0001040839)
(9.9989796e-05 -7.4525003e-05 -3.4745936e-05)
(-0.00024480715 5.2513622e-06 9.8308973e-05)
(-0.00022107437 -9.9876032e-06 0.00010159036)
(-0.00022405577 -3.8399908e-06 0.00010128983)
(0.00010114801 -8.1610554e-05 -4.5716398e-05)
(-0.00024612492 4.4110992e-06 9.538031e-05)
(-0.00030722884 4.0394316e-05 6.86458e-05)
(-0.0002165399 -4.7403743e-06 0.00010620611)
(-0.00020927748 -5.8284749e-06 0.00010508922)
(-0.00025803569 -1.5622104e-05 0.00011964762)
(-0.00015118962 -6.9938089e-06 8.5789076e-05)
(-0.00019785305 -7.7413179e-06 0.00010212449)
(-0.00021683797 -5.3976863e-06 9.8507676e-05)
(-0.00019186841 -4.9693544e-06 0.00010396822)
(-0.00013256152 -1.1361978e-05 8.9937519e-05)
(-0.00023806822 -1.3039157e-05 0.00010541755)
(-0.0001972144 -9.5583682e-06 9.6532132e-05)
(-0.00022034814 -7.6185254e-06 9.7133614e-05)
(-0.00021807448 -1.7483737e-05 9.590538e-05)
(-0.00020137313 -1.2477023e-05 8.8653398e-05)
(-0.00020643462 9.490433e-07 0.00010735337)
(-0.00015058925 -3.1660455e-07 0.00010621975)
(-0.00011803681 -7.2585681e-06 9.0227018e-05)
(-0.00017542413 -6.7553819e-06 9.780825e-05)
(-0.00022274395 -1.03213e-05 0.00010540669)
(-0.00035561798 6.4492845e-05 1.1274118e-05)
(-0.00014476417 3.7379899e-06 0.00011054802)
(-0.00027585164 -1.8520038e-05 0.00012779417)
(-0.00020387254 -1.4740219e-05 9.4114253e-05)
(-0.00035394578 6.6805432e-06 0.00019049088)
(-0.0003062324 6.6634536e-06 0.00016663716)
(-0.000193727 -1.5932082e-05 8.8142167e-05)
(-0.00033457608 6.1186022e-06 0.00019120801)
(-0.0003550782 3.1062104e-06 0.00019804639)
(-0.00011246561 -1.3578749e-05 7.3294601e-05)
(-9.9450553e-05 -1.2263426e-05 9.9463597e-05)
(-0.00028426736 -1.7667785e-05 0.00013244642)
(-0.00011005491 -3.713944e-06 0.00011039658)
(-0.00023809949 -5.132066e-06 0.00010826437)
(-0.00029149648 -1.9878246e-05 0.00015269695)
(-0.00032135978 -1.6672214e-05 0.00016326747)
(-0.00028655838 -1.5292234e-05 0.00013166802)
(-0.00028143214 -1.3629264e-05 0.00012812112)
(-0.00025474281 -1.7289535e-05 0.00011879439)
(-0.0002323543 -1.4476797e-05 0.00010794741)
(-0.00024491143 -1.6844918e-05 0.00011194783)
(-0.00027826263 -1.2364386e-05 0.00015866568)
(-0.00023574068 -2.0155545e-05 0.00011340275)
(-0.00024656513 -8.1195367e-06 0.00011161532)
(-0.00027072554 -2.1656467e-05 0.00013153412)
(-0.00026563011 -1.8567185e-05 0.00012507592)
(-0.00025804974 -2.3146208e-05 0.00012800368)
(-0.00010234158 -1.2574679e-06 0.00011223119)
(-0.00010121307 -1.2107714e-05 0.00012236783)
(-0.00028190444 -1.9382537e-05 0.00014432647)
(-6.6558339e-05 -4.843022e-05 7.4848647e-05)
(-0.00028208871 -1.7918203e-05 0.00013959886)
(-9.564237e-05 -6.7435598e-07 0.0001059735)
(-0.00026379663 -1.127608e-05 0.00015362571)
(-6.208905e-05 -6.6441905e-06 9.8025547e-05)
(-9.6070211e-05 -1.2569559e-05 0.00012560863)
(-5.6784343e-05 -1.0038531e-05 9.8079408e-05)
(-0.00014223273 -1.5661761e-06 0.00011091261)
(-6.3444578e-05 -4.8309481e-06 0.00010664696)
(-0.00021545953 1.5411313e-05 8.5348134e-05)
(-7.6393872e-05 -1.1947534e-05 0.0001115537)
(-0.00017257823 8.71739e-05 -1.5948395e-05)
(-0.00021864279 1.5427256e-05 8.4333498e-05)
(-5.03408e-05 -9.6155979e-06 9.9144316e-05)
(-0.00027498966 -2.0948343e-05 0.00013047885)
(-4.9082371e-05 -9.0484247e-06 8.79538e-05)
(-0.00030780016 3.4991246e-06 0.00017485394)
(-3.7272182e-05 -1.1024278e-05 6.8246916e-05)
(-4.4965756e-05 -6.3591508e-06 8.4584213e-05)
(-0.00011635829 -1.3540032e-06 0.00011027206)
(-7.5069638e-05 -3.2838865e-05 7.0072901e-05)
(-6.2996147e-05 2.7188551e-06 0.00010595364)
(-0.00030963261 -1.3117389e-05 0.00017912784)
(-4.9706525e-05 -9.8854966e-06 9.5413158e-05)
(-0.00023279794 5.5804762e-06 9.8167503e-05)
(-6.0850981e-05 2.9489161e-07 0.00010592306)
(-6.1633296e-05 4.014272e-06 0.00010669808)
(-5.1732777e-05 -1.8066328e-06 9.4782643e-05)
(-0.00035449174 3.3394137e-06 0.00019325488)
(-8.5273519e-05 4.7326639e-06 0.00011209278)
(-0.00034342279 7.8852207e-06 0.00018413902)
(-5.9858013e-05 -1.9603861e-06 9.5635208e-05)
(-3.9988569e-05 -1.4714707e-05 8.3961345e-05)
(-5.0054023e-05 -6.3070067e-06 8.3369751e-05)
(-5.1802782e-05 -4.5639154e-06 7.9941641e-05)
(-7.9611174e-05 9.3523001e-06 0.00011491198)
(-0.00028204198 -1.8345582e-05 0.00013507681)
(-3.978654e-05 -8.1415102e-06 8.224956e-05)
(-0.00028019161 4.1083852e-06 0.00015805997)
(-6.8167894e-05 6.4613575e-06 0.00010488808)
(-6.2377477e-05 6.1325114e-07 8.1228721e-05)
(-0.00035457299 -1.7168673e-06 0.00020243039)
(-7.150178e-05 8.0962196e-06 0.00011420953)
(-0.00022149563 2.9779998e-05 8.530485e-05)
(-0.00026712846 -1.1534074e-05 0.00015075334)
(-0.00026145894 -1.8358644e-05 0.0001293618)
(-7.1922904e-05 8.7424595e-06 0.0001023636)
(-0.00028146706 -9.3721296e-06 0.00014760413)
(-0.00033626212 2.8041518e-06 0.00019119499)
(-6.8323815e-05 4.1803967e-06 8.2630417e-05)
(-6.6178294e-05 -1.1010618e-06 7.8685734e-05)
(-6.3915447e-05 1.5994057e-06 8.0966105e-05)
(-0.00026576235 -1.9956832e-05 0.00013521481)
(-0.0002685065 -1.5937379e-05 0.00013239255)
(-5.983726e-05 -1.8018186e-05 9.4956979e-05)
(-0.00017110476 2.6397857e-05 6.8676649e-05)
(-5.5155753e-05 -1.7656314e-05 9.7387431e-05)
(-0.00027595847 1.3544897e-06 0.00015305557)
(-0.00027802546 -5.8256809e-06 0.00015172683)
(-7.2876667e-05 1.0355395e-06 7.5476952e-05)
(-7.4155111e-05 1.2860945e-06 7.5069397e-05)
(-6.7590524e-05 6.5135388e-06 8.4479185e-05)
(-7.6821222e-05 3.2630508e-06 7.3861343e-05)
(-9.7155317e-05 1.3650268e-05 0.00012731497)
(-5.2771516e-05 -1.7335869e-06 8.1371196e-05)
(-7.5452149e-05 5.830927e-06 0.00010167745)
(-0.00028464569 -1.2772034e-05 0.00015745744)
(-0.00031452411 1.130519e-05 0.00017793697)
(-9.2703016e-05 9.506523e-06 8.6594546e-05)
(-8.6456292e-05 1.7420434e-06 7.3261777e-05)
(-9.6352583e-05 8.4001713e-06 0.00010174677)
(-6.1125072e-05 -8.2852295e-07 7.8935572e-05)
(-0.00028911861 -2.1525746e-05 0.00014420581)
(-8.8332808e-05 2.3982781e-06 7.4725599e-05)
(-8.2226409e-05 6.1030963e-06 7.6963796e-05)
(-9.847206e-05 1.2237094e-05 8.8792418e-05)
(-0.00010867124 1.2054295e-05 0.00010925843)
(-0.00030432224 6.6717061e-05 6.9468972e-06)
(-0.00010826379 3.2134644e-05 6.0604702e-05)
(-0.00030241813 -1.3524792e-05 0.00016823811)
(-0.00027995847 -0.00012403654 5.3196253e-05)
(-0.00029379065 -1.3866118e-05 0.00014323446)
(-0.00025506638 -1.9162184e-05 0.00012791364)
(-0.00012091538 8.9981074e-06 0.00011154401)
(-0.00012790254 7.3890499e-06 0.00011112724)
(-0.00022931407 7.8167677e-05 -8.9407827e-06)
(-0.00034329283 9.4177189e-05 -6.6876155e-06)
(-0.00025953615 1.5086416e-05 0.00010159572)
(-0.00021253248 7.8632495e-05 -1.5909193e-05)
(-0.00012597513 4.6002803e-05 4.9827693e-05)
(-0.00029142608 5.1682587e-05 8.5446812e-05)
(-9.4234223e-05 2.8468723e-06 7.066114e-05)
(-8.409327e-05 1.5730308e-06 6.7603944e-05)
(-0.00010475174 1.8789186e-06 8.0036555e-05)
(-0.00025289718 1.2386645e-05 9.808678e-05)
(-0.0002645947 -1.4416125e-05 0.00013353784)
(-0.00026690326 -1.3943358e-05 0.00013379525)
(-0.00011450808 1.3815763e-05 9.603407e-05)
(-0.00010288889 1.1730774e-05 9.2429073e-05)
(-0.00029057249 -1.3411855e-05 0.00014760063)
(-0.00028664239 -1.3216862e-05 0.00014346288)
(-0.0001007348 7.0086329e-06 7.2872623e-05)
(-0.0001098448 4.1300733e-06 7.630006e-05)
(-8.3106316e-05 5.3010517e-05 3.4409891e-05)
(-0.00026560526 -1.6049917e-05 0.00013384296)
(-0.00025652533 -1.6521101e-05 0.0001350653)
(-0.00028743162 -1.7292664e-05 0.00015139365)
(-0.00028893424 -1.6537331e-05 0.00014744937)
(-0.00011388878 5.5793947e-06 8.392794e-05)
(-0.00022362543 -1.6596528e-05 0.00011763936)
(-0.00011591336 6.1963029e-06 9.1444458e-05)
(-6.5998036e-05 4.5726317e-05 1.7188381e-05)
(-0.00012142205 3.2254845e-06 7.8380269e-05)
(-0.00012850984 3.571461e-06 8.4189493e-05)
(-0.00013209502 4.1478364e-06 8.9875695e-05)
(-0.00012519518 -7.2634334e-07 7.9432171e-05)
(-0.00012664434 4.4788173e-07 7.5748654e-05)
(-0.00015127352 6.3931795e-06 9.6279642e-05)
(-0.00015941632 1.1210387e-05 9.9220588e-05)
(-0.00014233551 3.8291237e-07 8.1727738e-05)
(-0.00015114014 8.4725798e-06 8.8137044e-05)
(-0.00022914554 2.2459597e-05 9.0613312e-05)
(-0.00014238091 4.8416004e-06 8.0111049e-05)
(-0.00022017067 2.1904606e-05 8.3142911e-05)
(-0.00016325325 6.4139851e-06 8.7593094e-05)
(-0.00023025115 2.5398662e-05 8.9470775e-05)
(-0.00017928244 3.2952685e-06 0.00010244461)
(-0.00016777149 5.8699602e-06 0.00010078182)
(-0.00013329929 -9.5972219e-07 7.0448724e-05)
(-0.00015920377 1.4088288e-06 8.6681954e-05)
(-0.00018175701 3.9905703e-06 0.00010518066)
(-0.00018821382 9.9781431e-06 0.00010614085)
(-0.00023966157 -0.00010009944 3.6269439e-05)
(-0.00019060693 3.4453858e-05 7.8206643e-05)
(-0.00017899046 3.2685262e-06 9.3313809e-05)
(-0.00018339848 6.1606817e-06 9.2584615e-05)
(-0.00019159041 5.8287332e-06 9.9084687e-05)
(-0.00020077114 4.6565593e-06 9.8477804e-05)
(-0.00020748279 7.7519382e-06 0.00010243644)
(-0.00019724582 6.3522769e-06 0.00010106626)
(-9.7314758e-05 -3.7207768e-06 5.8407099e-05)
(-0.00015121152 -5.7731649e-06 0.00010295169)
(-0.00021976306 2.8932718e-06 0.00010571816)
(-0.00022230124 5.1754547e-06 0.00010179878)
(-0.00014457806 -4.9593319e-06 0.00010470742)
(-0.00032022543 -1.9382889e-05 0.00016629434)
(-0.00016888341 -7.6539335e-06 9.9076583e-05)
(-0.00021173384 1.0631258e-06 0.00010290246)
(-0.00020112218 -6.0419923e-07 8.8727368e-05)
(-0.00021405005 2.9618606e-06 0.00010732862)
(-0.00021621231 -1.5887681e-06 9.789732e-05)
(-0.00022585144 -1.3607151e-06 0.00010350337)
(-0.00022000806 5.330616e-06 0.00010866335)
(-0.00030025845 7.1489126e-06 0.00016817365)
(-0.00021437834 1.0300756e-06 9.3963189e-05)
(-0.00018523216 8.2019276e-06 8.215999e-05)
(-0.00022360261 3.2220065e-06 0.00010044831)
(-0.00023833167 1.0739881e-06 0.00010555837)
(-0.00021932444 1.6619172e-06 9.2503768e-05)
(-0.00023162314 4.0063996e-06 9.9311761e-05)
(-0.00019941385 -9.0522273e-07 9.5127366e-05)
(-0.00023990251 6.9441303e-06 0.00010120306)
(-0.00022786411 -5.3717453e-07 0.00010583077)
(-0.00025800118 -0.00011467452 4.7476842e-05)
(-0.00023762451 9.140162e-06 9.624135e-05)
(-0.00020112276 -1.9150391e-06 8.4595442e-05)
(-0.00025276381 4.5622122e-06 0.00011142016)
(-0.00030473736 -9.3799457e-06 0.0001584597)
(-0.00022640062 -3.4496942e-06 9.8240171e-05)
(-0.00024627063 -3.6152791e-06 0.00010093882)
(-0.00011416472 3.6287188e-05 4.8500184e-05)
(-0.00020674578 -1.08186e-05 0.00011032689)
(-0.0002478428 1.2735383e-05 9.9117278e-05)
(-0.00025857605 3.3365031e-06 0.00010091378)
(-0.00024959942 4.3408551e-05 8.5350472e-05)
(-0.00017638531 3.1203591e-06 9.5512611e-05)
(-0.0003290398 8.0916558e-06 0.00018332432)
(-0.00036222401 3.2093515e-06 0.00019916527)
(-0.00026605762 6.2676e-06 0.00010368063)
(-0.00018963463 2.4750143e-05 8.1526627e-05)
(-0.00018637624 -1.2731202e-06 9.8728984e-05)
(-0.00012936078 -2.1572954e-06 6.3920666e-05)
(-0.00020770702 4.423907e-06 7.7136752e-05)
(-0.00025606867 1.4567301e-06 0.00010092529)
(-0.00019086823 4.3597116e-06 8.1800258e-05)
(-0.00017400151 -1.0924154e-06 8.6078105e-05)
(-0.00021419107 2.1946946e-06 7.6771563e-05)
(-0.00034994111 -1.1812397e-05 0.00019536826)
(-0.00020297641 5.0286648e-06 0.00010814174)
(-0.00017761244 3.2443083e-07 7.7577995e-05)
(-0.00017827155 6.244349e-06 8.1990195e-05)
(-0.00018594032 3.6454512e-05 7.5991731e-05)
(-0.0002682751 6.5276258e-06 9.9302926e-05)
(-0.0002719507 1.202615e-06 0.00010185119)
(-0.00026929179 -1.3293953e-05 0.00015508194)
(-0.00013943383 5.6111537e-06 9.4770609e-05)
(-0.000213568 8.4744512e-06 9.531942e-05)
(-0.0002185981 2.9816085e-06 7.6632109e-05)
(-0.00026010744 7.6961858e-06 9.2678743e-05)
(-0.00027753518 -1.74419e-05 0.00014851915)
(-0.00014588986 9.0617507e-06 9.6863299e-05)
(-0.00031818917 -1.5494095e-05 0.0001829644)
(-0.00011830869 2.4898506e-05 5.1831032e-05)
(-0.00014427956 6.8639641e-07 7.8529506e-05)
(-0.00023149548 -1.6037273e-05 0.00012225092)
(-0.00027023578 1.3671855e-05 9.2793875e-05)
(-0.00023927699 3.4239151e-07 8.6259923e-05)
(-0.00015746133 3.5344192e-05 7.4653023e-05)
(-0.00015785594 1.6882084e-06 8.1497776e-05)
(-0.00031196391 5.6101572e-06 0.00017452776)
(-0.00025588092 -8.4386409e-07 0.00010434676)
(-0.00027157409 -1.2490826e-05 0.00014442019)
(-0.00030272998 -1.2979993e-05 0.00016117222)
(-0.00022649738 2.4807644e-06 7.4922173e-05)
(-0.00023356243 2.6382287e-05 0.00010609573)
(-0.00023092105 -4.2613154e-06 7.9807195e-05)
(-0.00012135258 9.5397257e-06 9.3744281e-05)
(-0.00026378059 -1.8192274e-05 0.00013947214)
(-0.00028928107 1.873577e-06 9.8870219e-05)
(-0.00026236172 4.5892198e-06 0.00010630461)
(-0.00021209356 7.4306051e-06 7.3510863e-05)
(-0.00023299809 -2.7398843e-06 0.00010155487)
(-9.0923501e-05 9.0292096e-06 6.0453628e-05)
(-0.00029570721 -1.4999123e-06 0.00011524842)
(-0.00026863791 9.7628937e-06 8.9024498e-05)
(-4.8487971e-05 -1.9423901e-05 9.5358686e-05)
(-0.00026306371 5.3243331e-06 8.8703565e-05)
(-0.00024072582 -3.9053269e-06 9.1350697e-05)
(-0.00019716479 -1.2504518e-07 0.00010768183)
(-0.00012944739 1.072273e-05 0.00010819307)
(-0.00027969637 1.3516764e-05 8.9460729e-05)
(-0.00030801631 7.4128625e-06 0.00010728146)
(-0.00031715628 -1.2344438e-05 0.00017386141)
(-0.00030355991 -3.7976204e-06 0.00010778188)
(-0.00016954541 2.962737e-06 0.00010200741)
(-0.00024618479 5.5482809e-06 7.8917825e-05)
(-0.00032196331 1.0005441e-05 0.00010883521)
(-0.00031520183 3.7148691e-06 0.00011039693)
(-0.00036192183 4.9811835e-06 0.00019338809)
(-0.00012559328 3.7220309e-06 7.7783309e-05)
(-9.9029039e-05 4.9842117e-06 6.2836254e-05)
(-0.0003570418 8.0563424e-06 0.00019521745)
(-5.0525633e-05 -1.7103918e-05 9.9721576e-05)
(-0.0002510659 -2.5182551e-06 0.00010904348)
(-0.00011865793 3.6594372e-06 6.7368233e-05)
(-0.00026494133 1.7228944e-05 8.8979661e-05)
(-0.00034750326 6.1938436e-06 0.00019625267)
(-0.00015512343 5.3347334e-06 7.2414946e-05)
(-0.00019649674 9.7010148e-06 8.1375135e-05)
(-0.00027555529 1.7819418e-05 9.0499464e-05)
(-0.00023013753 -2.0247241e-06 0.00010598413)
(-0.00023918823 4.1253131e-06 0.00010982481)
(-0.00025720994 -3.547215e-06 9.1400363e-05)
(-0.00029460344 -7.5236076e-06 0.0001084256)
(-0.00028583059 -4.5463073e-06 0.0001069302)
(-0.00036691891 1.2249071e-06 0.00020481368)
(-0.000222824 5.6564557e-06 8.9458368e-05)
(-0.00020111523 8.1929199e-06 7.75463e-05)
(-0.00033812534 1.0603018e-05 0.00018960634)
(-0.00028558479 2.0717219e-05 8.806235e-05)
(-0.0002411939 6.3740043e-06 8.4365336e-05)
(-0.00034949862 3.3088674e-06 0.00019806032)
(-0.00027173705 4.0952069e-06 8.3748965e-05)
(-0.00028148552 1.7043416e-06 0.00015977175)
(-8.7311739e-05 1.8888515e-05 5.4806864e-05)
(-0.00016146241 7.690113e-06 8.1511434e-05)
(-0.00027140524 -4.8098266e-07 0.00015164506)
(-0.00028408863 -1.1921446e-06 0.00015263776)
(-8.9358467e-05 1.1470236e-05 6.3227769e-05)
(-0.00018124966 -1.5570645e-06 0.00010194188)
(-0.00020886047 5.8454438e-06 8.9398971e-05)
(-9.2859323e-05 4.4509874e-06 6.0036386e-05)
(-0.00026380246 1.0744348e-05 8.7569895e-05)
(-0.00020554241 9.9917892e-06 8.6056558e-05)
(-0.00023596762 1.03881e-05 6.8225552e-05)
(-0.00032340237 1.4104925e-05 9.775362e-05)
(-9.7773405e-05 -5.4833656e-06 5.8334888e-05)
(-0.00020923176 1.3702413e-05 9.4516521e-05)
(-0.0003926832 -7.3406566e-05 7.5401389e-05)
(-0.0003992027 -6.2903601e-05 8.1367192e-05)
(-0.00028205202 6.6139518e-06 9.0758841e-05)
(-0.00013208458 7.0225051e-06 9.6142276e-05)
(-0.00030687272 2.8693911e-06 0.00012258873)
(-0.00029772187 -7.2166893e-07 0.00012009936)
(-0.00023615944 1.2468345e-05 8.2699043e-05)
(-0.00033346354 1.5306901e-05 9.7325747e-05)
(-0.00019097082 5.9482763e-06 7.6633375e-05)
(-0.00031725386 1.5663346e-05 8.8453787e-05)
(-0.00030636454 6.5632528e-06 9.1296815e-05)
(-0.00030734154 2.1006052e-07 9.4378993e-05)
(-0.00028559481 -1.6649587e-05 0.00015208843)
(-0.00029658694 1.5678179e-05 8.9017436e-05)
(-0.00027371525 1.6650207e-05 8.6300588e-05)
(-0.00031598188 8.466886e-06 9.3264557e-05)
(-0.00028161482 2.1539642e-05 8.8500151e-05)
(-0.00030816926 2.3187474e-05 9.0345255e-05)
(-0.00031174477 4.6750884e-06 0.00010002363)
(-0.00011732828 3.4942392e-05 6.3723294e-05)
(-0.00022469202 3.2405405e-06 0.00012695788)
(-0.0001360672 1.5650417e-05 0.00010992012)
(-0.00033133802 -8.2308909e-07 0.00010995639)
(-8.5609675e-05 3.1964237e-06 5.0831108e-05)
(-0.00033155332 -8.0725937e-06 0.0001131498)
(-0.00021610679 1.411049e-05 7.6345555e-05)
(-0.00014488206 9.486357e-06 7.2824741e-05)
(-0.00016081183 -6.1641505e-07 9.5256995e-05)
(-0.00034342836 3.9931325e-06 0.00011389285)
(5.6824164e-08 -1.667252e-05 1.6719923e-05)
(-0.00018835477 0.00011144981 -2.7748714e-05)
(-0.00027560568 -1.6186507e-05 0.00014627685)
(-0.00025908172 -1.6691373e-05 0.00014030776)
(-0.00023343329 -1.3419334e-05 0.0001258169)
(-0.00026342811 -1.0648646e-05 0.00013667475)
(-0.00031578158 -1.8796069e-05 0.00017375725)
(-0.00010352158 -1.0202347e-05 6.2662843e-05)
(-0.00043100863 -1.0749706e-05 4.1050609e-05)
(-0.00030360404 -1.7345636e-05 0.00016374341)
(-0.00028848443 -1.3972326e-05 0.0001522817)
(-0.00026499013 -1.7829393e-05 0.00014955877)
(-0.00029100042 -1.4490171e-05 0.0001537053)
(-0.00031620002 -1.6646024e-05 0.00016949777)
(-0.00026509154 -1.8069722e-05 0.00014518831)
(-0.00027531303 -5.8288692e-06 0.00016465669)
(-0.00030572532 -8.2699041e-06 0.00016306761)
(-0.00032431661 -1.0597096e-05 0.00018411747)
(-0.00033440647 -1.0776983e-05 0.00018393552)
(-0.00028689877 -1.2400485e-05 0.00016130578)
(-0.00027455982 -1.2698534e-05 0.00014623891)
(-0.00026641201 -1.7829992e-06 0.00015413113)
(-0.00034299553 -5.8898898e-06 0.00019329388)
(-0.00027571676 -1.5662959e-05 0.00015114555)
(-8.0399863e-05 -3.0656623e-05 7.5639417e-05)
(-0.00030400002 -1.1505119e-05 0.00017334832)
(-0.00031715253 -1.3098542e-05 0.00017946805)
(-0.00026802014 -1.3708625e-05 0.00014510492)
(-0.00027286873 -1.3853598e-05 0.00014988668)
(-0.0002811594 -1.533695e-05 0.00015772179)
(-0.00029526789 -1.5039526e-05 0.00016177332)
(-0.00031094228 -1.4843843e-05 0.00017645273)
(-0.00028608455 -1.4504125e-05 0.0001549062)
(-0.00028688433 -1.2706937e-05 0.00015298907)
(-0.00026891666 -1.4763893e-05 0.00015276153)
(-0.00032594609 -1.382174e-05 0.00017492353)
(-0.00033742214 -1.323399e-05 0.00019607727)
(0.000106578 0.00010921487 -5.856727e-05)
(-0.00032018049 -1.3833711e-05 0.00018139947)
(-0.00036093132 5.7407581e-06 0.00020205271)
(-0.00028657363 -2.458227e-06 0.00016381612)
(-0.00030621552 -1.7051098e-05 0.00016975345)
(-0.00030823975 -1.312834e-05 0.00016671279)
(-0.00027011325 -1.3109669e-05 0.00014802353)
(-0.00031802641 -1.5208021e-05 0.00017437879)
(-0.00031570229 -1.401364e-05 0.00016846217)
(-0.00025697981 -1.0545216e-05 0.00014666158)
(-0.00031367731 -1.519759e-05 0.00016822701)
(-0.00013287797 1.7808613e-05 0.00011627615)
(-0.00029072611 -1.530297e-05 0.00016540527)
(-0.00032687614 -1.5386103e-05 0.00018841132)
(-0.00031042882 -7.821212e-06 0.00017165296)
(-0.00031766336 -1.7211166e-05 0.00017539733)
(-0.00016551836 7.7138952e-06 0.00010722191)
(-0.00029592601 -1.525537e-05 0.0001641234)
(-0.00036158297 9.9122095e-06 0.00020670491)
(-0.00033015307 -1.3782111e-05 0.00017411407)
(-0.00036301572 8.7108612e-06 0.00020126696)
(-0.00027996274 -3.4652111e-06 0.00016343516)
(-0.00030436576 6.1048794e-06 0.00017235976)
(-0.00030625279 5.71352e-06 0.00017377977)
(-0.0003242284 -1.3762107e-05 0.00018040256)
(-0.00031076553 7.0690131e-06 0.00017724296)
(-0.00028928741 -5.1402533e-06 0.00016870582)
(-0.00031116842 5.6282611e-06 0.00016829809)
(-0.0002574844 6.4131828e-06 0.00014633245)
(1.9415312e-05 0.00014130623 -6.1008988e-05)
(-0.00026418303 8.1378867e-06 0.00014371962)
(-0.00025700985 6.6414521e-06 0.00014697223)
(-0.0002280817 -8.5543607e-07 0.0001140054)
(-0.00015296271 7.8526773e-06 0.00010113301)
(-0.00035860289 8.6035935e-06 0.00020145859)
(-0.00020326355 -4.6073312e-06 9.9881662e-05)
(-0.00037560008 6.6322288e-06 0.00020843231)
(-0.00029103368 7.3722241e-06 0.00016425553)
(-0.00035976362 8.3941863e-06 0.00020048489)
(-0.00027246978 -4.4165192e-06 0.00015926305)
(-0.00019501713 7.3056886e-06 0.00012371583)
(-0.00020480232 -6.646966e-07 0.00010822081)
(-0.00030805087 1.1264058e-05 0.00017255474)
(-0.0002896363 4.8475155e-06 0.00016277441)
(-0.00036732311 1.1245612e-05 0.00020605895)
(-0.00029033367 1.667945e-06 0.00016062575)
(-0.0003317176 1.7482675e-05 0.00011414773)
(-0.00027820766 1.6670558e-06 0.00015834609)
(-0.00030165394 9.0115178e-06 0.00017650705)
(-0.0002843592 5.5491935e-06 0.0001599586)
(-0.00031409039 8.3428653e-06 0.00018525194)
(-0.00033096336 6.9011495e-06 0.00018232877)
(-0.0003561441 1.2788684e-05 0.00020441263)
(-0.00031108743 1.2428703e-05 0.00017726007)
(-0.00045433513 5.5911472e-05 0.00025900811)
(-0.00033706067 8.3452677e-06 0.00019588072)
(-0.00029662922 1.0309872e-05 0.00017317972)
(-0.00013461897 3.0669976e-05 6.5330282e-05)
(7.2179989e-06 -3.1192777e-05 2.3317292e-05)
(-0.00025407353 -3.1631332e-05 4.3433166e-05)
(-0.00032832201 9.859348e-06 0.00019413851)
(-0.0003643741 1.3908866e-05 0.00020707845)
(-0.00035762299 1.3718071e-05 0.00020855274)
(-0.00029847394 -1.0962941e-05 0.00017524996)
(-0.00030937895 1.3913325e-05 0.00018299539)
(-0.00030465148 1.0499623e-05 0.00018261232)
(-0.00010453393 2.5866053e-05 5.0916641e-05)
(-0.00014069773 9.9600075e-06 0.00010377071)
(-0.00032552116 1.4420685e-05 0.00019511275)
(-0.00028212299 -1.1254359e-07 0.00015607469)
(-0.00029611089 1.1041509e-05 0.00017946596)
(-0.00028736143 -9.8827386e-06 0.00017009316)
(-0.00032662389 1.5393831e-05 0.0001910406)
(-0.00032897159 1.6937487e-05 0.00019371199)
(-0.00025107449 -4.1521411e-06 0.00011530403)
(-0.00033578894 1.2526016e-05 0.00019614976)
(-0.00027100321 1.1179576e-05 0.00015751443)
(-0.00032166634 3.6081221e-06 0.00018087263)
(-0.00035301092 1.6410873e-05 0.00020475854)
(-0.00029993604 1.3777804e-05 0.00017543105)
(-0.00035603993 1.7268214e-05 0.00020559819)
(-0.00034745519 1.4408448e-05 0.00021267375)
(-0.00024096773 1.0286208e-05 0.00013199958)
(-0.00027335894 -7.6759084e-06 7.183333e-05)
(-0.00023197684 -3.1216269e-06 0.00010947447)
(-0.00030131411 1.4957021e-05 0.00017717444)
(-0.00033152864 1.4820315e-05 0.00019742794)
(-0.00030176982 1.3577904e-05 0.00018099776)
(-0.00015975155 1.1322449e-05 0.00012562116)
(-0.00010428775 -1.3413991e-06 5.9104796e-05)
(-0.00028504723 9.3713633e-06 0.00017237251)
(-0.00034323919 1.881749e-05 0.00020330933)
(-0.00024035026 1.424904e-06 0.00011008465)
(-0.00020479476 5.3425264e-06 0.00012380691)
(-0.00036300564 -7.6076158e-05 3.4508261e-05)
(-0.0003535252 1.632341e-05 0.00021419321)
(-0.00028157548 1.3792046e-05 0.00017581505)
(-0.00042766977 1.4962693e-05 0.0002345306)
(-0.00029366971 1.5834364e-05 0.00017485218)
(-0.00033587614 1.7390701e-05 0.00020776067)
(-0.00034386261 1.5533418e-05 0.00021016402)
(-0.0003407977 -5.7362537e-05 3.1370592e-05)
(-0.00030351711 -6.9066186e-06 0.00016662398)
(-0.00025766553 2.9954139e-06 0.00015443824)
(-0.00034225827 2.0146304e-05 0.00021133144)
(-0.00028468377 1.4823633e-05 0.00017576295)
(-0.00028389852 1.6080227e-05 0.0001758197)
(-0.00034729717 2.2258752e-05 0.00021353385)
(-0.00029868889 1.9648983e-05 0.00018334919)
(-0.00034649141 1.9967348e-05 0.00021240343)
(-0.00039596729 -2.5286658e-05 0.0001645422)
(-0.00013982836 -3.1362113e-06 7.1627924e-05)
(-0.00028864208 1.9044986e-05 0.00017865267)
(-0.00035253002 2.3880733e-05 0.00021605513)
(-0.00041189668 -1.1980205e-05 0.00016735448)
(-0.00040249029 -2.9230237e-06 0.00018736213)
(-0.00027389789 1.7317741e-05 0.00017370509)
(-0.00028928049 1.4387839e-05 0.00018241612)
(-0.00031601937 1.3154109e-06 0.00016695589)
(-0.00030806583 1.0562897e-06 0.00017498125)
(-0.00028923833 2.5340088e-05 0.00018600797)
(-0.00027457963 1.1197199e-05 0.00016779423)
(-0.00027698053 2.2783811e-05 0.00017748487)
(-0.00027391956 2.0352791e-05 0.00018145077)
(-0.00028365499 2.3850732e-05 0.00018101118)
(-0.00014584435 1.2049316e-05 0.00012076594)
(-0.00021384257 2.5282898e-06 0.00012213372)
(-0.00028577127 1.9463448e-05 0.00017906386)
(-0.00027068036 2.0494408e-05 0.00017708182)
(-0.00026209164 1.8498376e-05 0.00017323358)
(-0.00012114966 -3.953312e-06 6.5279793e-05)
(-0.00032362479 2.8060841e-05 0.00022257746)
(-0.00023283773 2.2069204e-05 0.00016448331)
(-0.00027758068 2.4905455e-05 0.00019231258)
(-0.00030268805 2.8517961e-05 0.00021331243)
(-0.00028804301 2.787734e-05 0.00019254751)
(-0.00017942358 1.1137066e-05 0.00011504201)
(-0.00025007041 1.7898906e-05 0.00016226665)
(-0.00021601032 1.9422665e-05 0.00016272925)
(-0.0002634945 -3.2744153e-07 0.0001432146)
(-0.00025478152 2.3695148e-05 0.00017925633)
(-0.00053527567 6.7522326e-05 0.00028264866)
(-0.00020355897 1.6496087e-05 0.00015696453)
(-0.00030325238 -3.0920689e-06 0.00016632598)
(-0.00019621954 2.2638195e-05 0.0001561877)
(-0.00026679097 8.8309906e-06 0.00016275428)
(-0.00030003992 2.3179267e-05 0.00018821998)
(-0.00029047351 3.2390705e-06 0.00015995847)
(-0.00021551535 2.1023332e-05 0.00015733009)
(-0.00025583889 1.7498293e-05 0.0001614626)
(-9.5959625e-05 1.1094024e-05 9.6628995e-05)
(-0.00028721596 2.1409939e-05 0.0001858575)
(-0.00024032676 5.7229528e-06 0.0001418309)
(-0.00023334425 2.6922208e-05 0.00016608085)
(-0.0002666961 2.3127218e-05 0.00017890167)
(-0.00020753068 2.7423025e-05 0.00016593375)
(-0.00025672095 2.6734129e-05 0.00017905604)
(-0.00035269664 1.7222477e-05 0.00021077476)
(-0.00035259469 1.6429404e-05 0.00020659421)