/*--------------------------------*- C++ -*----------------------------------*\
  =========                 |
  \\      /  F ield         | OpenFOAM: The Open Source CFD Toolbox
   \\    /   O peration     | Website:  https://openfoam.org
    \\  /    A nd           | Version:  11
     \\/     M anipulation  |
\*---------------------------------------------------------------------------*/
FoamFile
{
    format      ascii;
    class       volVectorField;
    location    "10000";
    object      wallShearStress;
}
// * * * * * * * * * * * * * * * * * * * * * * * * * * * * * * * * * * * * * //

dimensions      [0 2 -2 0 0 0 0];

internalField   uniform (0 0 0);

boundaryField
{
    wall-fluid_domain
    {
        type            calculated;
        value           nonuniform List<vector> 
50462
(
(0.00032944634 -2.9155097e-05 0.00024839517)
(0.00037633788 -4.275752e-05 0.00029719714)
(0.00038757844 -3.3073933e-05 0.00020745366)
(0.00035527172 -2.6876903e-05 0.00018881585)
(0.00036531959 6.1690617e-05 0.00022890804)
(0.00040189275 -8.3796209e-06 0.00039561285)
(0.00038183269 -1.8147698e-05 0.00037468487)
(0.0004117381 9.3204684e-08 0.00041234034)
(0.00041965264 -3.3507166e-05 0.00023443971)
(0.00038553349 -1.5800318e-05 0.00038082815)
(0.00045715362 1.9855802e-05 0.00044915839)
(0.0003562671 -1.9735187e-05 0.00019314342)
(0.00037834516 1.1040496e-05 0.00038543682)
(0.00040523987 2.3763482e-05 0.00039641393)
(0.00040202459 2.3368904e-05 0.000393265)
(0.00045095033 1.9041055e-05 0.00044288502)
(0.00035923499 -1.7054606e-05 0.00019406609)
(0.00035514152 7.7751894e-06 0.00036554221)
(0.00039845705 2.759371e-06 0.00040552705)
(0.0003906437 -1.0827613e-05 0.00020715971)
(0.00041646445 2.730088e-05 0.00040567144)
(0.00025228841 -1.7779815e-05 0.00013985455)
(0.00035266115 1.1008879e-05 0.00035832283)
(0.00033124641 -9.8374592e-06 0.00019871145)
(0.00043933139 2.0381084e-05 0.00044043878)
(0.00031126979 -1.0030636e-05 0.0001725134)
(0.00041481447 2.66975e-05 0.00040242573)
(0.00035485281 -2.3516926e-05 0.00034483086)
(0.00040925755 3.5561574e-05 0.00039772867)
(0.00034117641 6.2330569e-06 0.00034553968)
(0.00033441871 -1.7626386e-05 0.00021752442)
(0.00044965622 2.4336463e-05 0.00044911487)
(0.00046532497 2.1539488e-05 0.00046074957)
(0.00031828072 -8.4488266e-06 0.00018579318)
(0.00037052892 2.3771551e-05 0.00036310656)
(0.00036363832 1.1577058e-05 0.00036521819)
(0.0004638412 2.0384697e-05 0.00045846414)
(0.00036556497 1.1229619e-05 0.00036181975)
(0.00048090771 3.2584802e-05 0.00046822579)
(0.00044712725 2.6435764e-05 0.00044914303)
(0.00038643104 -1.9684846e-05 0.00019754927)
(0.00032355648 -3.6061977e-06 0.00018643625)
(0.00032681446 -1.0578707e-05 0.00019876456)
(0.00047249923 3.4247473e-05 0.00046498773)
(0.00036377366 2.9952426e-05 0.00035782679)
(0.00046473887 3.8083329e-05 0.0004572787)
(0.00040043693 2.0802437e-05 0.00040928791)
(0.00041380377 2.3780517e-05 0.00040967436)
(0.00043046301 3.6455533e-05 0.00041754654)
(0.00037037634 2.8530666e-05 0.00035239802)
(0.00039926546 -4.6898664e-05 0.00031033123)
(0.00034053024 -1.3157176e-05 0.00016899433)
(0.00040230119 2.7488948e-05 0.0004023984)
(0.00030805239 -9.6977543e-06 0.00017624941)
(0.00043109845 -4.2100246e-05 0.0004057631)
(0.00032626985 3.880773e-06 0.00015220866)
(0.00043649576 -4.3715393e-06 0.00020648741)
(0.00044392942 -4.5391681e-05 0.00040782692)
(0.00044245051 -3.5255209e-06 0.00020959301)
(0.00055826116 -4.5015086e-05 0.00028947095)
(0.00040624483 -3.7135395e-05 0.0002277241)
(0.00027265797 -1.3729082e-05 0.00014534873)
(0.00030425941 -1.552891e-05 0.00021497239)
(0.00036374183 -2.5585746e-05 0.0002716932)
(0.00037770937 -2.0907541e-05 0.00020055372)
(0.00058895889 -2.5632698e-05 0.00028402987)
(0.00038550293 -2.6661962e-05 0.00020268248)
(0.00031312375 -1.2576654e-06 0.00016548876)
(0.00030795177 -7.4286019e-06 0.00016040366)
(0.00038146114 1.4474791e-05 0.0003922678)
(0.0004486037 -5.2139461e-05 0.00039872391)
(0.00043323739 -4.8659411e-05 0.00038881326)
(0.0004034616 -4.0975198e-05 0.00034760351)
(0.00040018371 -4.5867616e-05 0.00034557338)
(0.00044740693 2.0907469e-05 0.00043604844)
(0.00036263956 2.3013826e-05 0.00035872743)
(0.00038256912 -4.3529906e-05 0.00029193475)
(0.00037544794 -4.6981144e-05 0.00030939357)
(0.00034110655 -2.79388e-05 0.0002636235)
(0.00030292655 -2.1978632e-05 0.00022143779)
(0.00042858854 1.7875478e-05 0.000437944)
(0.00032843376 -3.2854084e-05 0.00025531154)
(0.00035800436 -5.0820585e-06 0.00035950158)
(0.00041924125 -4.7168061e-06 0.00019776334)
(0.0004360643 2.0867817e-05 0.00042909893)
(0.00035904326 -5.4755495e-06 0.00035716345)
(0.00041206238 7.9552427e-07 0.00040998634)
(0.00036429368 6.2509926e-06 0.00037173697)
(0.00028218921 -1.1378643e-06 0.00029380411)
(0.00035832822 6.7866792e-06 0.00036450991)
(0.00037899253 1.1137681e-05 0.00037820658)
(0.00031825195 3.5825097e-05 0.00017607529)
(0.0003076206 2.7774166e-05 0.00016249584)
(0.00033632219 8.6120879e-06 0.00034586076)
(0.00037592606 1.6352776e-05 0.00038523085)
(0.0003690964 6.015257e-06 0.00037142162)
(0.00030553165 1.2422691e-05 0.00030717052)
(0.00039195213 2.0149573e-05 0.00039153199)
(0.00033937286 1.3142824e-05 0.00034023706)
(0.00039978566 2.1317581e-05 0.00039569654)
(0.00038086599 2.1027973e-05 0.00038910543)
(0.00033764254 3.3180716e-05 0.00018199311)
(0.00032230799 4.3470778e-05 0.00018175651)
(0.00037008674 4.6708909e-05 0.00021506878)
(0.00032723962 -3.6419085e-05 0.00025874781)
(0.00036351135 -3.1067359e-05 0.00028074394)
(0.00037265515 5.3345591e-05 0.00021602929)
(0.00032170308 -8.3861096e-06 0.00020985066)
(0.00038875705 3.9228192e-05 0.00020969913)
(0.00034354888 3.5237436e-05 0.00018343679)
(0.0003507358 3.1717014e-05 0.00018777967)
(0.00038804333 4.6772567e-05 0.00021379602)
(0.00033287279 -3.2086904e-05 0.00026208597)
(0.00038709942 -3.4563113e-05 0.00037668722)
(0.00028540162 -3.2550428e-05 0.00023409571)
(0.00036813847 -2.629894e-05 0.00028681515)
(0.00029373991 -1.72226e-05 0.00020440112)
(0.00044170424 -4.9168293e-05 0.00039930022)
(0.00038079033 -3.9437214e-05 0.00034535369)
(0.00037581676 -3.8541231e-05 0.00034144266)
(0.00038328995 -3.6384504e-05 0.00034126334)
(0.00039785584 -3.6167494e-05 0.00037464599)
(0.00039192131 -3.5670088e-05 0.00037073414)
(0.00033391464 -1.9227468e-05 0.00024536671)
(0.00040900918 -4.3540684e-05 0.0003736247)
(0.00034728865 -3.5128258e-05 0.0002987376)
(0.00038438266 -3.4460651e-05 0.00035703113)
(0.00043448276 -2.7574672e-05 0.00041703473)
(0.00039676568 -3.057895e-05 0.00036403526)
(0.00038829434 -3.4588746e-05 0.00034252109)
(0.0004115381 -3.5395276e-05 0.00038060464)
(0.00040586552 -4.6108299e-05 0.0003683889)
(0.00034746265 -3.667142e-05 0.00030111747)
(0.00039294784 -4.3296782e-05 0.00037116156)
(0.00033630706 -3.6423524e-05 0.0002762025)
(0.0003870101 -1.4456974e-05 0.00037920765)
(0.00040755233 -8.8708878e-06 0.00040655896)
(0.00038739158 -3.4165554e-05 0.00034204429)
(0.00033707758 -3.6169629e-05 0.00027533739)
(0.00032980084 -3.1433581e-05 0.0002819086)
(0.00035369337 -2.9721247e-05 0.00028435472)
(0.00033173272 -3.5287438e-05 0.00029156731)
(0.00034053655 -4.1841841e-05 0.00028800457)
(0.00032390126 -2.1517201e-05 0.00025617374)
(0.00042271591 -3.023759e-05 0.00040840502)
(0.00032641361 -2.2350518e-05 0.00025785485)
(0.00061437356 -5.0496422e-05 0.00052236967)
(0.00033817571 -3.3791748e-05 0.00028052982)
(0.00035761633 2.0145868e-06 0.00035366195)
(0.00037168087 -4.0562558e-05 0.00031493814)
(0.00037140714 -3.0699273e-05 0.00030455816)
(0.00042277507 -3.3006468e-05 0.00038291588)
(0.00036043283 -3.2476157e-05 0.00030014516)
(0.00037069805 8.1196567e-06 0.00036914382)
(0.00033902462 -2.8103572e-05 0.00028842846)
(0.00038240696 -3.2013193e-05 0.00036252462)
(0.00031446779 -2.4875163e-05 0.00026008374)
(0.0004095277 -3.7394522e-05 0.00037547634)
(0.00038572222 -3.0077593e-05 0.00031106801)
(0.00060190205 -6.526925e-05 0.00052177523)
(0.00032044326 -2.8717104e-05 0.00027161643)
(0.00037360959 -1.9777588e-05 0.00030256632)
(0.00031447759 -3.0209604e-05 0.00027869869)
(0.00037602683 -1.6985407e-05 0.00030542477)
(0.00033859276 -3.0632787e-05 0.00029490162)
(0.00043590702 -2.6180532e-05 0.00041582809)
(0.00039521706 -3.4952139e-05 0.00038022725)
(0.00032922399 -1.775191e-05 0.00024068727)
(0.0003613821 -2.3734359e-05 0.00030422385)
(0.00034924608 -2.727982e-05 0.0002972748)
(0.00059154761 -5.2360895e-05 0.00052660872)
(0.00041024102 -3.440105e-05 0.00038362722)
(0.00035438756 -2.980451e-05 0.00030787799)
(0.00027680349 -2.3498477e-05 0.00024367445)
(0.00038187538 -2.8931204e-05 0.00035853855)
(0.00036641868 -1.9492658e-05 0.00036751077)
(0.00027846372 -2.4068127e-05 0.00025050214)
(0.00036367227 -2.8843646e-05 0.00032295638)
(0.0003244047 -1.1788561e-05 0.00023139541)
(0.00029958517 -1.5286075e-05 0.00024113484)
(0.00037379782 -1.8877953e-05 0.00030408468)
(0.0003823401 -2.8909171e-05 0.0003642699)
(0.00039164659 -2.6787777e-05 0.00036473608)
(0.00029382552 -1.9074378e-05 0.00023294712)
(0.00033366481 -2.0366782e-05 0.00027363275)
(0.00040150833 -6.1441434e-06 0.00040412218)
(0.0003697822 -2.8285725e-05 0.00036163632)
(0.00040078121 -2.725626e-05 0.00037453001)
(0.00034129651 -1.1085716e-06 0.00034824331)
(0.00029084672 -1.573078e-05 0.00021670732)
(0.00036583598 -2.237495e-05 0.00035066623)
(0.00035005503 -2.230686e-05 0.00034427206)
(0.00034684514 2.31657e-06 0.00035237409)
(0.00041995494 -3.5008924e-05 0.00038357505)
(0.00037300995 -2.791746e-05 0.0003303875)
(0.00036936038 -2.7577883e-05 0.0003640793)
(0.00042448249 -3.0056309e-05 0.00038190415)
(0.00029135914 -1.4087534e-05 0.00029792158)
(0.00028569851 -1.3818062e-05 0.00021125239)
(0.0003613689 -2.7462689e-05 0.00032106048)
(0.00036823174 -2.262493e-05 0.00036500935)
(0.00027315856 -1.1654785e-05 0.00020702978)
(0.00038516277 -2.7811101e-05 0.00035397493)
(0.00037297549 -1.3293606e-05 0.00036340916)
(0.00023873686 -1.7494169e-05 0.0001989947)
(0.00028440566 -1.1320488e-05 0.00022886008)
(0.0002956584 -1.2128609e-05 0.00029467792)
(0.00032526179 -5.9125542e-06 0.00022557286)
(0.00029764605 -1.3536259e-05 0.00020331292)
(0.00027346923 -1.3037393e-05 0.00021657191)
(0.00030291205 1.3279367e-05 0.00030942752)
(0.00036083851 1.978157e-05 0.00035429017)
(0.00028451004 -1.8093735e-05 0.00023531953)
(0.00024548314 -1.7941396e-05 0.0002125048)
(0.00036838779 -1.5038043e-05 0.0003651974)
(0.00038871269 -9.1951681e-06 0.00039607856)
(0.00040129908 -2.4706846e-05 0.00037373685)
(0.00031602377 -1.2656733e-05 0.00026438697)
(0.00034284304 -7.830179e-06 0.00033935982)
(0.00044312202 -2.0163319e-05 0.00042942497)
(0.00041783825 -2.708494e-05 0.00037851844)
(0.00038358087 -2.5717379e-05 0.00035155841)
(0.00045434688 -1.6669292e-05 0.00044101273)
(0.00034201464 -8.047709e-06 0.00034847716)
(0.00034794326 -1.3201284e-06 0.00034735932)
(0.00034558149 -2.3075477e-05 0.00032895198)
(0.00038850695 -2.0693288e-05 0.00037023347)
(0.00036434797 -5.1203544e-06 0.00036205849)
(0.00046012109 -1.703656e-05 0.00044362042)
(0.00036660499 -9.2987909e-06 0.0003676311)
(0.00039386461 -4.0380047e-06 0.0003890997)
(0.0004139521 -7.0449613e-06 0.00040401214)
(0.00041533826 -2.6560634e-05 0.00037693523)
(0.00039798175 -1.2776661e-05 0.00040013559)
(0.00036852075 -3.389643e-05 0.00033565586)
(0.00041160174 2.0112618e-06 0.00041322928)
(0.00045552067 -1.7794054e-05 0.00044065533)
(0.00040746469 2.8437777e-06 0.00040465861)
(0.00039085556 1.7126621e-06 0.00038553927)
(0.00041587976 8.7479015e-06 0.00041297452)
(0.00040900678 -1.8558545e-05 0.00039597902)
(0.0003870373 -1.949041e-05 0.00036791434)
(0.00031163575 -9.8111875e-06 0.00031011531)
(0.00045058665 -2.4598431e-05 0.00042575941)
(0.00034297637 -1.9836355e-05 0.00032580447)
(0.00040367866 -2.2378297e-05 0.00038966531)
(0.00039540533 -2.493412e-05 0.00039402786)
(0.00031220702 -1.044642e-05 0.00031537029)
(0.00044360386 -2.4249693e-05 0.00041897027)
(0.00036004612 -2.7181178e-05 0.00033411775)
(0.00042385575 -2.4866029e-05 0.00041108408)
(0.00033134904 -2.5927272e-05 0.00031974521)
(0.00042325632 -2.7043806e-05 0.000404025)
(0.00034335529 -1.714999e-05 0.00032983668)
(0.00039025828 -2.1258673e-05 0.00036275221)
(0.00039428115 -4.348226e-06 0.00038622007)
(0.0003938866 -8.1712828e-06 0.00039977857)
(0.0003877883 -2.0065888e-05 0.00036877252)
(0.00037170156 -1.9639315e-05 0.00034839083)
(0.00033103438 -1.3827118e-05 0.00032008114)
(0.00038217127 -1.816882e-05 0.0003638778)
(0.00042941769 -2.0055952e-05 0.00041027792)
(0.00034349654 -2.2969591e-05 0.00030915896)
(0.00038559737 3.424086e-06 0.0003928783)
(0.00038863945 -1.8525717e-05 0.00036932107)
(0.00040498666 1.1875354e-05 0.00041172729)
(0.00036421291 -5.4428271e-06 0.000359801)
(0.00037758633 1.62464e-05 0.0003736059)
(0.0003684838 -2.4345422e-05 0.00035230086)
(0.00042082332 -2.0676778e-05 0.00040590914)
(0.00037860078 -1.9708179e-05 0.00036660056)
(0.00036430029 -2.3908638e-05 0.0003466256)
(0.00031982052 -2.0170689e-05 0.00029653414)
(0.00038600059 -1.9659401e-05 0.00035409516)
(0.00031025256 -2.2463302e-05 0.00029817376)
(0.00038746755 -2.6770205e-05 0.00036263604)
(0.00042120459 -1.6821921e-06 0.00042902105)
(0.00042452816 4.3958153e-06 0.00042406872)
(0.00038119129 -2.5752781e-05 0.00035427726)
(0.00031248847 -2.2566094e-05 0.00029460989)
(0.00036084513 -2.2871432e-05 0.00032883179)
(0.00033478079 -2.1051779e-05 0.00030409284)
(0.00043416311 -1.1231705e-05 0.00042206413)
(0.00038414677 8.1283357e-06 0.00038742203)
(0.00038052429 -2.5451231e-05 0.00034616988)
(0.00035765624 -2.4261667e-05 0.00032955062)
(0.00032906621 -1.3734795e-05 0.00032504078)
(0.00033327951 -2.0389305e-05 0.00031480751)
(0.00027631703 -2.0016155e-05 0.00025454432)
(0.00036324465 -3.9338627e-06 0.00036710101)
(0.00027683689 -2.1361429e-05 0.00026116102)
(0.00033631336 -2.3450093e-05 0.00030648)
(0.00039712483 -2.4589963e-05 0.0003523751)
(0.00034291797 -1.8456949e-05 0.00032293309)
(0.00040699727 1.1732791e-05 0.00040935615)
(0.00029222752 -1.5106041e-05 0.00028608777)
(0.00044240708 -1.1114092e-05 0.00042559784)
(0.00036797215 -4.2539381e-06 0.00036097317)
(0.0003528138 -2.1701539e-05 0.00031418874)
(0.00034506832 -2.3471667e-05 0.0003119776)
(0.00036139401 4.0204795e-07 0.00035904852)
(-2.8225706e-06 -3.0289009e-05 -3.8236101e-05)
(0.00034256607 -1.586271e-05 0.0003225605)
(0.00033193955 -2.5895134e-05 0.00031172799)
(0.00040160525 9.398527e-06 0.00040642597)
(0.00034139084 -1.895243e-05 0.00032153619)
(0.00034341339 1.5186622e-05 0.00035286739)
(0.00040799031 6.0864139e-06 0.00040874758)
(0.00039223887 -2.3661242e-05 0.0003491522)
(0.00038825876 -2.7741203e-05 0.00034785405)
(0.00040522874 7.9451365e-06 0.00040107417)
(0.00040637747 1.406349e-05 0.00040434818)
(0.00036076723 -3.0494803e-06 0.00036171235)
(0.00036925192 3.6122215e-06 0.00036645653)
(6.5413661e-06 -1.5811604e-05 -1.2981072e-05)
(0.0003539953 1.7576119e-05 0.0003500189)
(0.00049254346 2.4038825e-05 0.00048981534)
(0.00033059489 -2.4303772e-05 0.00029735383)
(0.00035429943 1.5096824e-05 0.00035452729)
(0.00042979734 1.3123281e-05 0.00041935838)
(0.00036573201 4.9375552e-06 0.00036788323)
(0.00037982912 -2.3881896e-05 0.00033316169)
(0.00034657255 1.6873249e-05 0.0003506168)
(0.00034573685 1.6236574e-05 0.0003465076)
(0.00041938071 1.4771399e-05 0.00041472198)
(0.00035300094 -1.2941379e-06 0.00034509335)
(0.00035289409 -2.5502609e-05 0.00031596782)
(0.00050100596 2.7525549e-05 0.00048814088)
(0.00042445485 1.1804603e-05 0.00041635471)
(0.00037495221 3.4777699e-06 0.00036902307)
(0.00027507207 -2.3769762e-05 0.00024884989)
(0.00033774924 1.4072688e-06 0.00033208479)
(0.00035678573 1.2765928e-05 0.00035856744)
(0.0003882502 1.7944792e-05 0.00038616259)
(0.0003703803 5.0498866e-06 0.00037171048)
(0.00035577991 1.0728077e-05 0.00035062085)
(0.00035853398 1.3969105e-05 0.0003543946)
(0.00037909533 -2.707947e-05 0.00033108426)
(0.00033346137 -2.2025045e-08 0.00032830321)
(0.00038201297 -2.2415694e-05 0.00033229716)
(0.00041067917 6.8061438e-06 0.00039879387)
(0.00038598717 -2.0735935e-05 0.00033454603)
(0.00032641604 1.191992e-06 0.00032097663)
(0.0003311393 -2.3182486e-05 0.0003044923)
(0.00040114057 -8.3727555e-06 0.00039255512)
(0.00032431214 5.3997558e-07 0.00031750983)
(0.00037881161 -2.6288647e-05 0.00034180884)
(0.00028929865 1.5765125e-05 0.0002882764)
(0.00035461402 1.191233e-05 0.00035339338)
(0.00035169084 -2.3308351e-05 0.00031389231)
(0.00040747383 1.0051612e-05 0.00040359379)
(0.00040368638 1.7980521e-05 0.00038809238)
(0.00034064028 -2.0202361e-05 0.00029262086)
(0.00043008373 -1.5006831e-05 0.00040890041)
(0.00037808862 2.3141079e-05 0.00036127603)
(0.0003393499 3.6729503e-06 0.00033689241)
(0.00041632196 1.2385791e-05 0.00040265519)
(0.00033276594 -9.9569999e-06 0.00028471111)
(0.00031760331 -1.4683353e-05 0.00027075157)
(0.0003387192 6.7985825e-06 0.00033269829)
(0.00035662445 -2.2248326e-05 0.0003091236)
(0.00043943224 -1.5223256e-05 0.00041686566)
(0.00032846655 -2.3353153e-05 0.00029923325)
(0.0003134366 -2.4255119e-05 0.00030159968)
(0.00040439696 1.4999953e-05 0.00039155553)
(0.00042205019 -1.4725379e-05 0.00040438943)
(0.00034816427 1.0472161e-05 0.00034017274)
(0.00039338933 1.2733602e-05 0.00038718251)
(0.00040140453 1.7502947e-05 0.00038779439)
(0.00038043307 2.2601894e-05 0.00036204764)
(0.00037408212 1.6493081e-05 0.00037684048)
(0.00039701517 1.7667672e-05 0.00038413126)
(0.00043847856 -1.2086029e-05 0.00042406286)
(0.00032815481 1.4981443e-05 0.00031542694)
(0.00036365102 -3.0127233e-05 0.00033391132)
(0.00026592045 1.6088483e-05 0.00026084022)
(0.00038079661 2.2304212e-05 0.00036131478)
(0.00034888354 2.4120599e-05 0.00034561547)
(0.00038463511 -2.211104e-05 0.00033227711)
(0.00033992166 1.0676793e-05 0.00033702881)
(0.00036912433 2.8908589e-05 0.00035474751)
(0.00027052604 -1.8023047e-05 0.0002307381)
(0.00033832664 -1.9527555e-05 0.00028908553)
(0.00031640027 1.2658714e-05 0.00031177516)
(0.00042166749 -2.9444482e-05 0.00036791647)
(0.00035726413 2.6435852e-05 0.00034438619)
(0.00035506858 -5.1206738e-06 0.00035211131)
(0.00026714913 -2.1650021e-05 0.00022550994)
(0.00035081592 -2.7994668e-05 0.00030869073)
(0.00032958169 -1.2083744e-05 0.00031689454)
(0.00032937031 -2.2853109e-05 0.00029170151)
(0.00037886768 -2.6272676e-05 0.00032939146)
(0.00043902434 -2.8092571e-05 0.00037878012)
(0.00041144524 2.5867843e-05 0.00041470049)
(0.00032094026 -2.485833e-05 0.0002930902)
(0.00032276565 -2.0780724e-05 0.00027115267)
(0.00035826724 -5.8617987e-06 0.00035687808)
(0.00040245982 -7.6344073e-06 0.00038930064)
(0.00036032615 -3.8887127e-06 0.00035915946)
(0.00029866736 -2.3806087e-05 0.00027269404)
(0.00039454229 2.0879625e-05 0.00038370411)
(0.00034659426 -1.7290404e-05 0.00028918694)
(0.00033918005 -2.4422198e-05 0.00030220962)
(0.00033172263 -2.9391604e-05 0.00029922241)
(0.00033004014 -2.5245204e-05 0.00028505401)
(0.00024474361 -1.3388922e-05 0.00021323088)
(0.00030740208 -2.5003572e-05 0.00026327565)
(0.00032479868 -2.9046825e-05 0.0002832686)
(0.00031794329 -2.2648788e-05 0.00026607784)
(0.000370102 2.5458765e-05 0.00036438958)
(0.00032586588 -2.3347239e-05 0.00027251765)
(0.00036340145 -2.6778939e-05 0.00031861635)
(0.00034018983 -2.6330565e-05 0.00028977168)
(0.00043579889 -1.5522045e-05 0.00041813995)
(0.00041376655 -2.3365772e-05 0.00036011445)
(0.00031962207 -2.7691087e-05 0.00026597514)
(0.00034891688 -3.2812893e-05 0.00030908226)
(0.00042927968 -1.9230829e-05 0.00041275779)
(0.00033380483 -3.0305096e-05 0.00028400975)
(0.00029735256 -2.7239473e-05 0.00024699254)
(0.00035014319 -2.3541367e-05 0.00031060994)
(0.00036532702 -2.7804597e-05 0.00029978357)
(0.00029213621 -2.8008773e-05 0.00024051456)
(0.00032148333 -2.0624943e-05 0.00025892452)
(0.000325093 -2.6272344e-05 0.00026422253)
(0.0003631946 -2.4275439e-05 0.00029241615)
(0.00033358173 -2.8594831e-05 0.00027381332)
(0.00037255119 -2.3812153e-05 0.00029687101)
(0.00033335041 -2.66622e-05 0.00027072156)
(0.00026463369 -2.6666294e-05 0.00022694462)
(0.00032913224 -2.8254158e-05 0.00027010168)
(0.00034015105 -2.9570747e-05 0.00028730515)
(0.00026583746 -2.6817182e-05 0.0002185327)
(0.00032022895 -3.4826359e-05 0.0002718593)
(0.00033266971 -2.8741589e-05 0.00028173682)
(0.0003676609 -3.2172311e-05 0.00030474445)
(0.00032525196 -2.7486956e-05 0.0002608084)
(0.00041753308 -2.3431874e-05 0.00036285612)
(0.00033712016 -2.1096503e-05 0.00028217802)
(0.0003564425 -3.5092563e-05 0.00029542598)
(0.00032749746 -3.4430634e-05 0.0002837228)
(0.00025810478 -2.9419711e-05 0.00023077719)
(0.00037805744 -1.8002341e-05 0.0003053834)
(0.00034608874 -3.1826242e-05 0.0002974464)
(0.00033890914 -3.1408544e-05 0.00029347733)
(0.00033100636 -1.5124113e-05 0.00026278517)
(0.00034598704 -3.3526012e-05 0.00029986493)
(0.00031471361 -2.7826769e-05 0.00027415392)
(0.0003509573 -1.6385606e-05 0.0003310857)
(0.00034851527 -2.8319336e-05 0.00027932503)
(0.00031030585 -2.8527583e-05 0.00027226046)
(0.00034205951 -1.3276691e-05 0.00028110303)
(0.00030068322 -2.8617926e-05 0.0002693829)
(0.00034416652 -3.5876745e-05 0.00030857719)
(0.00026848291 -1.5005228e-05 0.0002260265)
(0.00033020699 -1.8319848e-05 0.00028115881)
(0.00043415959 -1.0001721e-05 0.00037177494)
(0.00036380507 -2.6299502e-05 0.00029821202)
(0.00033145463 -2.193051e-05 0.0002573447)
(0.00037398704 -2.0568387e-05 0.00028956719)
(0.00043947778 -2.6863641e-05 0.0003794286)
(0.00031415706 -3.151251e-05 0.00025280333)
(0.00035433754 -1.8424766e-05 0.00029556702)
(0.00026797658 -2.3835449e-05 0.00021201275)
(0.00034160442 -1.7273291e-05 0.0002780763)
(0.00036005848 -1.5321676e-05 0.0002881168)
(0.00035002382 -1.8567573e-05 0.00032710656)
(0.00035500552 -1.9757212e-05 0.00028284978)
(0.00033209295 -1.5960537e-05 0.00025398725)
(0.00031819443 -2.9042326e-05 0.0002542559)
(0.00034157269 -1.1278581e-05 0.00027514713)
(0.00038987927 -8.2753171e-06 0.00030719505)
(0.00031938746 -2.0490373e-05 0.00025096037)
(0.00039542493 -6.3381397e-06 0.00031066161)
(0.00033215478 -1.8174514e-05 0.00028496621)
(0.0003352759 -1.6591439e-05 0.00025927975)
(0.00027252925 -1.1686106e-05 0.0002253117)
(0.00034663971 -6.9655265e-06 0.00026988353)
(0.00039893042 -2.9475094e-05 0.00037804743)
(0.00037654842 -1.5747414e-05 0.00029149365)
(0.00033986463 -1.2114993e-05 0.00026225322)
(0.00031283707 -2.7070179e-05 0.000294177)
(0.0003297098 -1.5469897e-05 0.00026971301)
(0.00034719183 -1.4682478e-05 0.0002653305)
(0.00037311338 -2.0893667e-06 0.0002957708)
(0.00029459505 -2.3433709e-05 0.00026805452)
(0.00027583575 -2.1306969e-05 0.00024209564)
(0.00034853136 -1.0338183e-05 0.00026245969)
(0.00031821378 -1.6994397e-05 0.00027185995)
(0.00044623502 -2.1827125e-05 0.0003837683)
(0.00042394181 -1.0378173e-05 0.00036059786)
(0.00031631065 -2.6682079e-05 0.00024573028)
(0.0003384354 -7.2373259e-06 0.00027620017)
(0.00029481582 -3.1365361e-05 0.00024625616)
(0.00037977184 -6.1634046e-06 0.00030656023)
(0.00039733184 -1.4400693e-05 0.00033343334)
(0.00036529791 -2.8093803e-05 0.00032412409)
(0.00037792522 2.169502e-06 0.00029914497)
(0.00034167202 -2.4676174e-05 0.00026433043)
(-4.1037463e-06 -3.4226968e-05 -3.3210524e-05)
(0.0003962771 -1.997828e-05 0.00033306966)
(0.00030761766 -7.650531e-06 0.00025390844)
(0.00029693961 -1.4313199e-05 0.00025003059)
(0.00031732971 -1.4056486e-05 0.00026863641)
(0.00037113402 -1.8014563e-05 0.00028860556)
(0.00034199267 3.1098589e-06 0.0002825368)
(0.00033886931 -1.3873565e-06 0.00027692276)
(0.00030190217 -7.8440914e-06 0.00025107575)
(0.00029974237 -2.8443797e-05 0.00023598886)
(0.00035965748 -1.8695587e-05 0.00031026002)
(0.00030944396 -2.5176729e-05 0.00024531941)
(0.00034401822 -1.2934355e-05 0.00025928993)
(0.00042890468 -2.4467924e-05 0.00037384622)
(0.00035401555 -3.289576e-05 0.00031830708)
(0.00033857005 -1.536333e-05 0.00025521654)
(0.00030982584 -2.1524332e-05 0.00024069937)
(0.00029920056 -3.6052866e-05 0.00024218845)
(0.00034110626 -1.5381175e-05 0.0002536918)
(0.00039019091 -1.920811e-05 0.00033036737)
(0.0003402666 -2.9092019e-05 0.00026387354)
(0.00033473437 -2.0509193e-05 0.00025426224)
(0.00026380144 -2.6489976e-05 0.00024140167)
(0.00040393237 -1.6682726e-05 0.00033719412)
(0.0003164593 -2.1178864e-05 0.00023788317)
(0.00029858115 -6.0797926e-06 0.00022635094)
(0.00024826745 -2.3403055e-05 0.00018997715)
(0.00033088471 -2.4096693e-06 0.00024990576)
(0.00034926955 -3.1969092e-05 0.00029832699)
(0.00030448531 -1.596573e-05 0.0002246064)
(0.0003039274 -2.3447903e-05 0.00022739138)
(0.00025056571 -2.8240608e-05 0.00019730072)
(0.00040083031 -1.4593733e-05 0.00033656836)
(0.00043519818 -1.4032044e-05 0.00037109106)
(2.780413e-05 -1.6404021e-05 -1.6694077e-06)
(0.0002520511 -3.7755532e-07 0.00019960471)
(0.00029978697 -3.2149373e-05 0.00026011663)
(0.00036846553 -1.9171847e-05 0.0002746947)
(0.00044527197 -2.1290509e-05 0.00038420969)
(0.00031289183 -2.4765713e-05 0.00024096507)
(0.00036646659 -1.1576539e-05 0.0002647918)
(0.00036096476 -2.9809168e-05 0.0002752307)
(0.00035009599 -2.2240096e-05 0.00026048301)
(0.00035905635 -1.6025915e-05 0.0002632934)
(0.00028686398 1.2938023e-06 0.00023663471)
(0.00035631806 -1.9755071e-05 0.00026111914)
(0.0003216165 -2.6211676e-05 0.00029658307)
(0.00034493495 -2.6847924e-05 0.00031398303)
(0.00032944553 -1.9598298e-05 0.00024738855)
(0.0003972361 -2.757592e-05 0.00038491715)
(0.00039972654 -2.7135535e-05 0.0003478981)
(0.00033567152 -1.1084811e-05 0.00023831773)
(0.0003197797 -1.8135302e-05 0.00023416248)
(0.00029476523 -2.1752979e-05 0.00022378663)
(0.00033090344 -1.3357495e-05 0.00023380599)
(0.00032203063 -2.3599396e-05 0.00023903447)
(0.00032564465 -2.1590215e-05 0.00023291002)
(0.00031647851 -1.6734518e-05 0.00023322348)
(0.00030426798 6.465804e-06 0.00023300664)
(0.00029753492 -1.8657974e-05 0.00022087521)
(0.0003920694 -1.9188004e-05 0.00033219209)
(0.00036640897 -9.9056975e-06 0.00026508127)
(0.00030122717 -1.5268369e-05 0.00021793749)
(0.00034187793 -3.5731815e-05 0.00031520095)
(0.00032345871 -1.4068626e-05 0.00022468974)
(0.00029988365 -2.0983659e-05 0.00022285011)
(0.0003415125 -3.7363634e-05 0.00029074652)
(0.00034417658 -1.5795921e-05 0.00024845061)
(0.00031374103 -3.0437315e-05 0.00024781129)
(0.00023543131 -8.8923405e-06 0.00017082181)
(0.00028838741 -1.568231e-05 0.00020369218)
(0.00029177057 -2.8484752e-05 0.00023411773)
(0.00032322671 -7.3728631e-06 0.00022175245)
(0.00028533471 -1.0251257e-05 0.00019798069)
(0.0002902228 -2.6150242e-05 0.00022645068)
(0.00028921276 -1.1562629e-05 0.00019998579)
(0.0002423071 -2.0972283e-05 0.00018840578)
(0.00032862508 -2.6772759e-05 0.0002569418)
(0.000407492 -2.672848e-05 0.00035679454)
(0.00029070744 -1.6087481e-06 0.00022588424)
(0.00023991924 -1.8531375e-05 0.0001870751)
(0.0003290966 -1.3948621e-05 0.00024300417)
(0.00038207137 -1.9345154e-05 0.00032609293)
(0.00043439791 -2.8341333e-05 0.00037983765)
(0.00026234791 -1.0394031e-05 0.00019350056)
(0.00033683377 -2.8118275e-05 0.00031135234)
(0.00031974178 -2.8528979e-05 0.00030437308)
(0.00027917925 -2.509642e-05 0.0002658197)
(0.00033551918 -2.3528932e-05 0.00032087465)
(0.00028501734 -2.2180747e-05 0.00026874494)
(0.00023887568 -1.4585546e-05 0.00017441107)
(0.00031409266 -1.0375268e-05 0.00022385942)
(0.00032933895 -4.9364471e-06 0.00022646963)
(0.00039456023 -1.4972933e-05 0.00033841943)
(0.00032941394 -2.1984142e-05 0.00032159208)
(0.0003178785 -2.0539115e-05 0.00031144696)
(0.00032698066 -1.8493153e-05 0.00031277355)
(0.00038803935 -1.8704541e-05 0.00033642669)
(0.00027274945 -1.7183658e-05 0.00020798301)
(0.00030644084 -1.4750022e-05 0.00029669307)
(0.00042046901 -1.9787829e-05 0.00036035667)
(0.00040438944 -2.3065966e-05 0.00034948322)
(0.00032629953 -7.0094165e-06 0.0002251862)
(0.00035240508 -1.2683686e-05 0.00025779786)
(0.00031345649 -8.3407504e-06 0.00022056944)
(0.00043887439 -2.0912056e-05 0.00038262861)
(0.00024102818 -2.2018301e-05 0.00018081864)
(0.00034505865 -3.4720057e-05 0.00030007472)
(0.00036645147 -2.4005128e-05 0.00028484699)
(0.00033211193 -3.3215379e-05 0.00026299431)
(0.00026954674 -2.0735193e-05 0.00020847956)
(0.00034741261 -1.5682682e-05 0.0002513926)
(0.00036420366 -2.4421487e-05 0.00028263412)
(0.00034247315 -1.992078e-05 0.00024908062)
(0.00031280763 -1.5527027e-05 0.00023112826)
(0.00034015237 -2.9344682e-05 0.00027065717)
(0.00031025167 -1.2761428e-05 0.00022303521)
(0.0003451749 -6.9095842e-06 0.00024241994)
(0.00030638266 -1.6798402e-05 0.00022507649)
(0.00030844264 -2.2162299e-05 0.00023578405)
(0.00028829716 -1.3213673e-05 0.00021292934)
(0.00031368491 -1.902072e-05 0.00023456421)
(0.00030470501 -2.0203135e-05 0.00023377406)
(0.00033991014 -9.4656819e-06 0.00023564227)
(0.0003526811 -2.1108703e-05 0.00027580606)
(0.00032643306 -1.4377925e-05 0.00023364522)
(0.00032914589 -1.1622195e-05 0.000243588)
(0.00030526126 -2.9399971e-05 0.00024315198)
(0.00035080525 -2.8402816e-05 0.00028063457)
(0.00034082833 -2.4972662e-05 0.00026896644)
(0.00034703861 -2.8133407e-05 0.00027920852)
(0.00031235827 -2.3249077e-05 0.00023916004)
(0.00032321751 -1.4111926e-05 0.00023704578)
(0.00029646165 -5.6512163e-06 0.00021408607)
(0.0003496991 -2.1777788e-05 0.00027426812)
(0.00033491981 -7.1040597e-06 0.00024391389)
(0.00034099753 -1.8391062e-05 0.00025693412)
(0.00034262556 -2.9829079e-05 0.0002812798)
(0.0003132055 -2.0137155e-05 0.00023609962)
(0.00033723134 -2.1535582e-05 0.00026686809)
(0.00036089067 -2.8419335e-05 0.00029796349)
(0.00031981011 -2.3697682e-05 0.00025668949)
(0.00037688887 -3.3437866e-05 0.00030901855)
(0.00029124059 -2.0312231e-05 0.00022710702)
(0.00032968713 -2.3582611e-05 0.00025486111)
(0.00033193706 -2.412778e-05 0.00026107316)
(0.00035324124 -3.1465987e-05 0.00029473945)
(0.00035266847 -2.9079921e-05 0.00029597909)
(0.00035328192 -3.1233462e-05 0.00029802485)
(0.00041352893 -3.4425376e-05 0.00034468265)
(0.00031515745 -3.0394466e-05 0.00025759269)
(0.00032367956 -3.4177135e-05 0.00028555568)
(0.00027729428 -2.6893886e-05 0.00024136126)
(0.00040657633 -3.7144415e-05 0.00033866668)
(0.0003310942 -3.2267832e-05 0.00028605648)
(0.00032400673 -2.797146e-05 0.000259151)
(0.00033279704 -3.7778362e-05 0.00029306946)