/*--------------------------------*- C++ -*----------------------------------*\
  =========                 |
  \\      /  F ield         | OpenFOAM: The Open Source CFD Toolbox
   \\    /   O peration     | Website:  https://openfoam.org
    \\  /    A nd           | Version:  11
     \\/     M anipulation  |
\*---------------------------------------------------------------------------*/
FoamFile
{
    format      ascii;
    class       volVectorField;
    location    "2121";
    object      wallShearStress;
}
// * * * * * * * * * * * * * * * * * * * * * * * * * * * * * * * * * * * * * //

dimensions      [0 2 -2 0 0 0 0];

internalField   uniform (0 0 0);

boundaryField
{
    wall-fluid_domain
    {
        type            calculated;
        value           nonuniform List<vector> 
50462
(
(5.9484282e-05 -6.0922366e-06 3.8658724e-05)
(7.323803e-05 -9.2032823e-06 5.095721e-05)
(6.7316798e-05 -5.4687653e-06 3.0085265e-05)
(6.0185917e-05 -6.323047e-06 2.8644962e-05)
(8.3569063e-05 1.840219e-05 3.7252939e-05)
(7.3941793e-05 -2.5286773e-06 7.1031775e-05)
(7.2628822e-05 -4.9161029e-06 6.9397032e-05)
(7.982433e-05 -9.5975364e-07 7.4242929e-05)
(7.110184e-05 -4.4878611e-06 3.5313886e-05)
(7.4747339e-05 -2.7109233e-06 6.8836402e-05)
(8.9912245e-05 4.1799005e-06 8.0744989e-05)
(6.1525976e-05 -3.6409982e-06 3.0460897e-05)
(7.0032089e-05 2.6432221e-06 6.9780524e-05)
(8.5228925e-05 6.7019934e-06 7.8091274e-05)
(7.8687375e-05 6.1556594e-06 7.7259999e-05)
(8.4307948e-05 3.1984679e-06 7.8507673e-05)
(6.325913e-05 -3.4405684e-06 3.1174418e-05)
(6.6974432e-05 1.4931115e-06 7.0165956e-05)
(7.2906859e-05 -5.8312817e-07 7.490591e-05)
(6.6372354e-05 1.8499749e-07 3.1553191e-05)
(8.7178342e-05 5.6296802e-06 7.9290242e-05)
(4.7779804e-05 -5.2853171e-06 2.3802294e-05)
(6.3674112e-05 1.9724831e-06 6.6411185e-05)
(6.233449e-05 1.3133693e-06 3.1442473e-05)
(7.7824107e-05 3.9958312e-06 7.696557e-05)
(5.8181449e-05 -9.2655558e-07 2.9822244e-05)
(8.1117641e-05 5.4384494e-06 7.6690136e-05)
(6.7869957e-05 -6.0927415e-06 6.5700978e-05)
(8.5835612e-05 1.0031434e-05 8.0330651e-05)
(6.5193073e-05 1.4657482e-06 6.742876e-05)
(5.8612283e-05 -3.7226368e-06 3.3061857e-05)
(7.6944757e-05 5.1110966e-06 7.8811562e-05)
(8.7724815e-05 3.4697249e-06 8.1640389e-05)
(5.850902e-05 1.3661675e-06 3.1043641e-05)
(7.3408413e-05 4.7600816e-06 6.9552377e-05)
(7.3405579e-05 2.6181227e-06 6.7835626e-05)
(8.0045829e-05 3.467543e-06 8.034188e-05)
(6.888501e-05 2.3245861e-06 6.7653811e-05)
(9.4547093e-05 6.54688e-06 8.4879594e-05)
(7.921479e-05 4.5188375e-06 7.9443608e-05)
(6.2702406e-05 -4.8936738e-06 2.9203655e-05)
(5.5205666e-05 8.0305087e-07 2.7863285e-05)
(5.7931987e-05 -1.8700514e-06 3.02698e-05)
(9.0865469e-05 6.7049763e-06 8.4211285e-05)
(7.1868703e-05 6.8608082e-06 7.026664e-05)
(8.5367448e-05 7.376054e-06 8.2412117e-05)
(7.3282342e-05 3.8053894e-06 7.4762559e-05)
(7.7248073e-05 3.5874533e-06 7.209754e-05)
(7.7821004e-05 7.0072638e-06 7.5327257e-05)
(7.5151741e-05 5.1527143e-06 6.7608633e-05)
(7.20081e-05 -1.0198205e-05 5.1168138e-05)
(5.8160793e-05 -3.5667621e-06 2.5812432e-05)
(7.2136444e-05 4.5599341e-06 7.0851706e-05)
(5.3953351e-05 -4.2325531e-07 2.8512329e-05)
(8.2535385e-05 -1.0063488e-05 7.4114093e-05)
(5.1769683e-05 9.041584e-07 1.692209e-05)
(7.2481878e-05 3.3066708e-06 2.2812299e-05)
(9.0276392e-05 -1.0310147e-05 7.617391e-05)
(7.6743215e-05 3.5475737e-06 2.3557225e-05)
(8.7108288e-05 -7.9206534e-06 4.0241544e-05)
(6.4828664e-05 -8.6564013e-06 3.3492114e-05)
(4.9369906e-05 -3.2031848e-06 2.3260081e-05)
(5.3468917e-05 -1.0631571e-06 3.1480467e-05)
(6.3445777e-05 -4.1008273e-06 3.8936451e-05)
(6.4822003e-05 -3.3634754e-06 3.1352565e-05)
(9.0088231e-05 -3.7692057e-06 3.7862577e-05)
(6.1808395e-05 -9.3690321e-06 2.9377007e-05)
(5.4274507e-05 8.8598539e-07 2.5962408e-05)
(5.5455652e-05 -1.3130712e-06 2.5466805e-05)
(7.088846e-05 2.7583188e-06 7.2420772e-05)
(8.1231686e-05 -1.2740219e-05 7.0911184e-05)
(8.4235434e-05 -1.1575266e-05 7.0481597e-05)
(7.6594588e-05 -8.8820017e-06 6.0498783e-05)
(7.1651007e-05 -1.1397685e-05 5.8494352e-05)
(8.7150597e-05 2.0892915e-06 7.5409048e-05)
(6.3782608e-05 3.1220218e-06 6.4449941e-05)
(7.2196415e-05 -9.0527582e-06 5.016045e-05)
(7.0133243e-05 -1.0814114e-05 5.3018993e-05)
(6.500475e-05 -4.0252368e-06 4.3668187e-05)
(5.6026063e-05 -3.4210401e-06 3.4361747e-05)
(7.7405578e-05 2.9128106e-06 7.914306e-05)
(5.9617298e-05 -6.3856421e-06 3.9962833e-05)
(7.0340706e-05 -1.5380291e-06 6.480282e-05)
(6.3727129e-05 -7.042455e-07 2.0368976e-05)
(7.7368992e-05 2.4519689e-06 7.0945559e-05)
(6.458295e-05 -2.5126609e-06 6.420701e-05)
(7.4078418e-05 -8.3171304e-07 7.3225289e-05)
(6.6091666e-05 -1.165481e-07 6.4841547e-05)
(5.6693002e-05 -2.0159589e-06 5.736438e-05)
(6.1217737e-05 -5.3429253e-07 6.5857757e-05)
(7.2553492e-05 1.7085801e-06 6.8408517e-05)
(7.4960027e-05 1.1574948e-05 2.4991692e-05)
(6.7363958e-05 8.147974e-06 1.9097952e-05)
(6.397706e-05 8.9699869e-07 6.5159477e-05)
(6.5945959e-05 2.2995832e-06 6.7638521e-05)
(6.8807832e-05 -8.183872e-07 6.574458e-05)
(5.6118483e-05 1.7440735e-06 5.6854119e-05)
(7.0577439e-05 2.4812313e-06 6.7700192e-05)
(6.4686797e-05 2.0064495e-06 6.2937643e-05)
(7.3945143e-05 3.5756048e-06 6.8073471e-05)
(6.6084887e-05 2.0173553e-06 6.9497457e-05)
(7.8517949e-05 7.6482087e-06 2.4082813e-05)
(7.4321195e-05 1.4355686e-05 2.8261054e-05)
(8.2977048e-05 1.4649208e-05 3.3058324e-05)
(5.9317802e-05 -1.0429252e-05 4.4286518e-05)
(5.8645112e-05 -8.0877011e-06 3.8441146e-05)
(8.8105196e-05 1.4284876e-05 3.4463556e-05)
(5.5563976e-05 -3.7975495e-07 3.0687873e-05)
(8.8389399e-05 1.0697018e-05 2.9148547e-05)
(7.8763303e-05 8.4857169e-06 2.400342e-05)
(7.7803383e-05 7.9933374e-06 2.5745524e-05)
(8.5198635e-05 1.3118636e-05 3.0639812e-05)
(5.9108443e-05 -6.7893284e-06 4.213147e-05)
(7.2623801e-05 -8.3142739e-06 6.8737998e-05)
(5.1128042e-05 -9.7053801e-06 3.8135459e-05)
(6.2796226e-05 -4.0437366e-06 4.1049796e-05)
(5.100208e-05 -2.3211173e-06 3.0038453e-05)
(7.9155657e-05 -1.0086461e-05 6.9374635e-05)
(7.1079627e-05 -1.0911401e-05 6.1707595e-05)
(6.8066007e-05 -1.0184973e-05 6.1012159e-05)
(7.1000854e-05 -9.3419105e-06 5.8558223e-05)
(7.4725875e-05 -8.5577527e-06 6.7547709e-05)
(7.4547938e-05 -8.7310909e-06 6.7866024e-05)
(5.8376165e-05 -2.7494867e-06 3.5486695e-05)
(8.4623621e-05 -1.0121317e-05 6.9697012e-05)
(6.2350881e-05 -8.8485762e-06 4.9875267e-05)
(7.2775074e-05 -8.2972512e-06 6.2456499e-05)
(8.4445319e-05 -5.588652e-06 7.2669751e-05)
(7.8150784e-05 -6.0018355e-06 6.4187603e-05)
(7.4376298e-05 -7.0449372e-06 5.7475794e-05)
(7.9838703e-05 -7.1852366e-06 6.5640791e-05)
(8.1217144e-05 -1.2130208e-05 6.8157845e-05)
(6.3383368e-05 -9.1290016e-06 5.0873678e-05)
(7.6301125e-05 -1.1382092e-05 6.8284415e-05)
(6.1975596e-05 -8.7804665e-06 4.7231451e-05)
(6.9841984e-05 -3.7751729e-06 6.8013412e-05)
(7.7769412e-05 -2.3924119e-06 7.0374602e-05)
(6.8679013e-05 -9.0238436e-06 5.6713313e-05)
(6.3322635e-05 -8.53343e-06 4.6396234e-05)
(6.1108641e-05 -8.0303529e-06 4.6334244e-05)
(6.6443872e-05 -3.5627929e-06 4.4359834e-05)
(5.9718838e-05 -9.1752618e-06 4.7914124e-05)
(6.0099515e-05 -1.1060699e-05 4.6699035e-05)
(5.4250123e-05 -5.6795478e-06 3.5825067e-05)
(7.7882413e-05 -6.9360173e-06 7.2406687e-05)
(5.7584493e-05 -6.1075691e-06 3.7762544e-05)
(0.00010884969 -1.2546232e-05 7.8986945e-05)
(5.9316112e-05 -5.8102354e-06 4.318987e-05)
(7.2136998e-05 -9.8402675e-07 6.389919e-05)
(6.6985265e-05 -1.0475601e-05 4.7195815e-05)
(6.5176487e-05 -3.1894157e-06 4.439123e-05)
(8.0255928e-05 -6.3307144e-06 6.3153447e-05)
(6.1029808e-05 -6.6142985e-06 4.5502784e-05)
(6.4495903e-05 -6.3402484e-07 6.4439836e-05)
(6.0976194e-05 -6.6538713e-06 4.4971462e-05)
(7.0194001e-05 -7.3207753e-06 6.2569654e-05)
(5.534499e-05 -7.1777604e-06 3.9237492e-05)
(7.2978598e-05 -9.5744702e-06 6.1224482e-05)
(6.9304405e-05 -5.3412748e-06 4.623763e-05)
(9.5817619e-05 -1.9950017e-05 7.8391281e-05)
(5.8057421e-05 -7.0512803e-06 4.2364437e-05)
(6.4395497e-05 -3.2161455e-06 4.2258148e-05)
(5.3823946e-05 -9.9678597e-06 4.6652584e-05)
(6.5411002e-05 -6.4864928e-07 4.2363704e-05)
(5.8926167e-05 -7.5015079e-06 4.4568894e-05)
(7.7607514e-05 -6.6319913e-06 7.1279373e-05)
(7.1998486e-05 -8.9748297e-06 6.554409e-05)
(5.3318532e-05 -4.5150989e-06 3.2069967e-05)
(6.5662041e-05 -4.1350009e-06 4.2508867e-05)
(5.9201991e-05 -6.2007718e-06 4.0579315e-05)
(9.758287e-05 -1.357498e-05 7.892793e-05)
(7.2190935e-05 -8.1196978e-06 6.2424506e-05)
(6.2991303e-05 -8.9118724e-06 4.5647865e-05)
(4.9397948e-05 -7.89447e-06 3.8603598e-05)
(7.0040036e-05 -6.4565099e-06 6.0146844e-05)
(6.6882418e-05 -5.0643677e-06 6.5175351e-05)
(4.9601162e-05 -7.4069072e-06 4.0781225e-05)
(6.2685357e-05 -8.8099088e-06 4.9823893e-05)
(5.3997732e-05 -8.6182103e-07 3.0927869e-05)
(5.3373418e-05 -2.606647e-06 3.5122012e-05)
(5.9293449e-05 -5.097316e-06 3.9532667e-05)
(7.0594675e-05 -6.8836736e-06 6.3441237e-05)
(6.7803099e-05 -5.564524e-06 5.7751089e-05)
(5.1885088e-05 -3.7834166e-06 3.2473398e-05)
(5.4917383e-05 -4.6656839e-06 3.851404e-05)
(7.1234249e-05 -1.803463e-06 7.0198069e-05)
(6.44133e-05 -7.2325526e-06 6.0934538e-05)
(7.1181963e-05 -4.8071033e-06 5.7898665e-05)
(6.3376206e-05 -1.5000262e-06 6.3014262e-05)
(4.7324203e-05 -3.580169e-06 2.8073955e-05)
(6.4411513e-05 -5.8862334e-06 5.7600245e-05)
(6.0730462e-05 -6.4349758e-06 6.0960443e-05)
(6.6359367e-05 -1.3552483e-06 6.3261112e-05)
(7.1213235e-05 -1.0055882e-05 6.081385e-05)
(6.5920609e-05 -7.4289036e-06 5.0661269e-05)
(6.4210401e-05 -6.0684066e-06 6.2819912e-05)
(7.485799e-05 -6.9557683e-06 5.9784606e-05)
(5.3173399e-05 -5.1230224e-06 5.6315137e-05)
(4.5263798e-05 -2.7075615e-06 2.6085016e-05)
(6.2936053e-05 -7.7610853e-06 4.9471041e-05)
(6.4063093e-05 -7.3270343e-06 6.2947212e-05)
(4.3434885e-05 -1.5109261e-06 2.5239046e-05)
(7.0318301e-05 -4.2071371e-06 5.490635e-05)
(7.0791265e-05 -3.05443e-06 6.4803533e-05)
(4.1928695e-05 -8.2769426e-06 2.859917e-05)
(4.9198893e-05 6.4447521e-07 2.9660581e-05)
(5.3372741e-05 -4.1431751e-06 5.4758919e-05)
(5.1203775e-05 1.0166959e-06 2.8050587e-05)
(4.9388264e-05 -1.5034754e-06 2.8016128e-05)
(4.6076763e-05 -1.7612993e-06 2.7569897e-05)
(5.6376856e-05 2.0191528e-06 5.7253604e-05)
(6.5569139e-05 1.871475e-06 6.2822851e-05)
(5.0319177e-05 -3.6946047e-06 3.1097992e-05)
(4.6299492e-05 -4.6933854e-06 3.2165338e-05)
(7.0394755e-05 -4.4855035e-06 6.4788541e-05)
(6.9645243e-05 -2.3397254e-06 6.9602743e-05)
(6.5130425e-05 -5.5271132e-06 5.687138e-05)
(5.4556344e-05 -1.2326843e-06 3.37636e-05)
(6.070303e-05 -3.7834773e-06 5.9189551e-05)
(7.6142007e-05 -5.732473e-06 6.9107845e-05)
(7.2581238e-05 -3.6829294e-06 5.5776609e-05)
(6.4098328e-05 -6.0975078e-06 5.3966266e-05)
(8.1780434e-05 -4.3434409e-06 7.3998381e-05)
(5.9530339e-05 -4.3845397e-06 6.2220233e-05)
(6.6267078e-05 -1.3276351e-06 6.344497e-05)
(5.9168709e-05 -3.8315036e-06 5.022335e-05)
(6.9570524e-05 -4.15671e-06 5.6189844e-05)
(6.5410243e-05 -2.1772638e-06 6.2790414e-05)
(8.0327651e-05 -4.0078094e-06 7.1027596e-05)
(6.615954e-05 -3.462109e-06 6.2992871e-05)
(7.5538367e-05 -2.3948901e-06 6.6201176e-05)
(7.4913275e-05 -1.1023173e-06 6.5771811e-05)
(6.5151288e-05 -6.2548356e-06 5.528762e-05)
(6.5240878e-05 -3.6955738e-06 6.4920343e-05)
(5.6753688e-05 -8.6428413e-06 4.9775516e-05)
(7.4038953e-05 -1.1845451e-06 7.1760583e-05)
(7.2280522e-05 -5.0126952e-06 6.9063724e-05)
(7.3294589e-05 -1.7891195e-06 7.0071341e-05)
(6.9134462e-05 -2.0447264e-06 6.5396124e-05)
(7.370872e-05 -2.8384303e-07 6.7578568e-05)
(6.8291037e-05 -3.2985728e-06 5.9652485e-05)
(6.3101702e-05 -5.6210341e-06 5.6085857e-05)
(5.1844122e-05 -3.8066833e-06 5.4474786e-05)
(7.4921451e-05 -4.3362538e-06 6.1976396e-05)
(5.59511e-05 -4.3920501e-06 4.966924e-05)
(6.2953505e-05 -6.8193038e-06 5.8467805e-05)
(6.4273067e-05 -9.7910706e-06 6.4476324e-05)
(5.5038586e-05 -3.8558084e-06 5.6126218e-05)
(7.180728e-05 -4.2503027e-06 6.049159e-05)
(5.5760383e-05 -6.1210212e-06 4.8111721e-05)
(6.3128312e-05 -5.7926366e-06 5.9393263e-05)
(5.2312611e-05 -6.6185635e-06 4.8122455e-05)
(6.2740369e-05 -5.8057067e-06 5.6726312e-05)
(5.2982729e-05 -5.2537774e-06 5.0701285e-05)
(6.1466255e-05 -3.124886e-06 5.1648561e-05)
(7.0284183e-05 -3.0458659e-06 6.5014156e-05)
(6.297117e-05 -2.8382645e-06 6.6089832e-05)
(6.3063272e-05 -3.14268e-06 5.4399496e-05)
(5.5780628e-05 -3.9124242e-06 4.832928e-05)
(5.7222698e-05 -4.9999714e-06 5.3572346e-05)
(5.95189e-05 -3.7785179e-06 5.3869692e-05)
(7.6086329e-05 -5.0384632e-06 6.4319113e-05)
(5.3033459e-05 -5.6066175e-06 4.3390326e-05)
(6.2866769e-05 -1.5797239e-06 6.7592756e-05)
(6.5133205e-05 -2.9758238e-06 5.5685763e-05)
(6.8314061e-05 1.965042e-06 6.973382e-05)
(6.6010154e-05 -3.0528056e-06 6.3563583e-05)
(6.8206453e-05 1.8782079e-06 6.4825422e-05)
(5.4683691e-05 -5.797646e-06 4.962366e-05)
(6.8942658e-05 -6.2252741e-06 6.4994035e-05)
(5.6471579e-05 -5.7550321e-06 5.6780649e-05)
(5.3455613e-05 -5.5884865e-06 4.9622035e-05)
(4.9478459e-05 -4.6590946e-06 4.2514544e-05)
(5.8020935e-05 -1.8376828e-06 4.9327636e-05)
(4.7869811e-05 -6.587686e-06 4.651786e-05)
(5.9033385e-05 -5.3702139e-06 5.2176748e-05)
(6.7279856e-05 -4.9235703e-06 7.1079465e-05)
(7.0447907e-05 -2.1532662e-06 6.9168611e-05)
(5.1995462e-05 -5.4912295e-06 4.8959166e-05)
(4.7218359e-05 -5.0782009e-06 4.3464831e-05)
(5.4264056e-05 -5.111578e-06 4.5635997e-05)
(4.7111621e-05 -4.0453508e-06 4.1449678e-05)
(7.6014343e-05 -4.1042001e-06 6.9366146e-05)
(6.4734274e-05 5.9863423e-07 6.6864434e-05)
(5.4970207e-05 -5.6150208e-06 4.7822309e-05)
(5.2634686e-05 -6.1497534e-06 4.6208138e-05)
(5.7215758e-05 -3.7218841e-06 5.463158e-05)
(5.3307535e-05 -5.57354e-06 4.9675136e-05)
(4.2451258e-05 -5.744409e-06 3.8766113e-05)
(6.2280053e-05 -2.5639877e-06 6.4911326e-05)
(4.5683827e-05 -5.5769561e-06 4.2204634e-05)
(4.6792787e-05 -4.8725244e-06 4.1745282e-05)
(6.6923368e-05 -2.0470898e-06 5.0684557e-05)
(5.7558285e-05 -4.072493e-06 5.1110837e-05)
(6.6907085e-05 7.4060117e-07 6.7878293e-05)
(4.8863036e-05 -4.3274039e-06 4.878791e-05)
(7.9225132e-05 -3.1769691e-06 6.8042931e-05)
(6.3781523e-05 -1.9575541e-06 6.0320846e-05)
(4.8156885e-05 -3.3214536e-06 4.1434833e-05)
(5.6560664e-05 -4.2115284e-06 4.6073734e-05)
(6.3357021e-05 -1.053334e-06 6.1741506e-05)
(3.1328402e-07 -2.2243943e-06 -1.1220985e-06)
(5.8670479e-05 -3.2152224e-06 5.239254e-05)
(5.1804434e-05 -5.3718644e-06 4.7198267e-05)
(6.7128257e-05 -6.4052608e-07 6.7552983e-05)
(5.3245937e-05 -4.9305846e-06 5.062399e-05)
(5.9085484e-05 1.9035624e-06 6.2096235e-05)
(6.8349617e-05 2.5081285e-07 6.6576919e-05)
(5.866382e-05 -3.9801787e-06 4.9198195e-05)
(6.1318955e-05 -3.536837e-06 4.9170202e-05)
(6.7145832e-05 8.7823e-08 6.3582795e-05)
(7.0895351e-05 1.2728537e-06 6.8504851e-05)
(6.1234908e-05 -1.0711661e-06 6.0341232e-05)
(5.9600536e-05 -4.0456591e-07 5.979866e-05)
(1.2189462e-06 -1.7379526e-06 -1.2694818e-06)
(5.9646584e-05 2.4917163e-06 5.9028144e-05)
(7.7477101e-05 3.5623085e-06 7.7286166e-05)
(4.9335401e-05 -4.8966616e-06 4.1533385e-05)
(6.07637e-05 1.5462261e-06 5.9769505e-05)
(7.3567986e-05 9.0728003e-07 6.3886195e-05)
(5.6821278e-05 6.7842036e-07 5.8980647e-05)
(5.3531722e-05 -4.0814783e-06 4.2476866e-05)
(6.0519961e-05 2.6205077e-06 6.1200357e-05)
(5.7038894e-05 1.7575832e-06 6.0369807e-05)
(6.9320787e-05 1.2499932e-06 6.6660026e-05)
(5.9233033e-05 -4.0312008e-07 5.6285699e-05)
(4.6039992e-05 -5.1461897e-06 4.0513055e-05)
(8.6086696e-05 4.9413308e-06 7.5737307e-05)
(6.4549189e-05 4.2190818e-07 6.2612075e-05)
(5.964747e-05 -8.2740213e-07 5.8050411e-05)
(4.5643244e-05 -5.0872188e-06 4.0468339e-05)
(6.0650522e-05 -1.5587831e-07 5.4490774e-05)
(5.7303428e-05 4.0044513e-07 5.9418091e-05)
(6.7464643e-05 9.6190994e-07 6.6652548e-05)
(5.8359459e-05 -1.9350689e-07 6.0140635e-05)
(5.7933571e-05 5.8301366e-07 5.754592e-05)
(6.0894041e-05 1.1375891e-06 6.0860014e-05)
(4.8794023e-05 -4.9582121e-06 4.1785055e-05)
(5.5249537e-05 -9.5422076e-07 5.4535421e-05)
(4.7523342e-05 -4.6619183e-06 4.0105832e-05)
(6.5962703e-05 4.2677661e-07 6.0738402e-05)
(5.5240092e-05 -1.3147185e-06 4.0601801e-05)
(5.8154506e-05 -9.7935305e-07 5.2500501e-05)
(5.2741506e-05 -3.7244987e-06 4.623424e-05)
(6.1734716e-05 -1.9314013e-06 6.0868784e-05)
(5.404145e-05 -9.9222185e-07 5.1585248e-05)
(5.6420684e-05 -4.2728082e-06 4.8592154e-05)
(5.5652413e-05 2.1913076e-06 5.3674345e-05)
(6.0924506e-05 1.0869713e-06 6.0046097e-05)
(5.6789842e-05 -4.2364813e-06 4.2947986e-05)
(6.1426209e-05 1.4947911e-06 6.2420316e-05)
(7.4069728e-05 2.1565161e-06 6.7866032e-05)
(5.0447373e-05 -1.3907894e-06 3.9794213e-05)
(7.3878314e-05 -2.8685072e-06 6.0376376e-05)
(6.4358346e-05 2.5638106e-06 6.0778938e-05)
(5.2003668e-05 -1.6581177e-06 5.275611e-05)
(6.9934587e-05 1.0399233e-06 6.2765286e-05)
(6.0154902e-05 -7.8931786e-07 3.8779165e-05)
(5.5427072e-05 -2.502753e-06 3.6220644e-05)
(5.2656373e-05 5.6139773e-07 5.2082084e-05)
(5.7623354e-05 -2.0386857e-06 4.5434704e-05)
(7.6820316e-05 -3.7488812e-06 6.4537943e-05)
(5.2799444e-05 -2.5124484e-06 4.3348268e-05)
(4.676599e-05 -4.4786219e-06 4.7077009e-05)
(7.0614712e-05 8.9363349e-07 6.2377046e-05)
(6.4255481e-05 -3.5514332e-06 5.9350028e-05)
(6.1651971e-05 1.4251187e-06 5.5866896e-05)
(6.3383172e-05 1.167743e-06 6.285275e-05)
(7.3597078e-05 1.9496014e-06 6.5213074e-05)
(6.2871901e-05 2.3345967e-06 5.7062887e-05)
(6.1106282e-05 2.1223134e-06 6.4392182e-05)
(6.7182092e-05 3.0118518e-06 6.3676657e-05)
(7.1089386e-05 -4.4834795e-06 6.6857061e-05)
(5.8412554e-05 2.5449979e-06 5.247873e-05)
(5.1886146e-05 -5.4632973e-06 4.7830048e-05)
(4.348429e-05 3.7935284e-06 4.7256961e-05)
(5.7339631e-05 2.7877003e-06 5.6704877e-05)
(5.2398506e-05 3.9308209e-06 5.6192374e-05)
(5.228302e-05 -9.5670618e-07 4.2231015e-05)
(5.4554459e-05 1.9679237e-06 5.6477069e-05)
(5.8269534e-05 5.2656647e-06 5.6071171e-05)
(4.6981485e-05 -5.7493156e-06 3.3042025e-05)
(4.6194857e-05 -3.2744158e-06 3.7989524e-05)
(5.4221928e-05 1.8024828e-06 5.157418e-05)
(7.0539739e-05 -7.5030184e-06 5.4098678e-05)
(5.6791669e-05 3.1317302e-06 5.3633561e-05)
(5.844117e-05 -2.4354789e-06 5.7228683e-05)
(4.8643274e-05 -6.7176566e-06 3.2231869e-05)
(5.2355588e-05 -5.609661e-06 4.426967e-05)
(5.8084432e-05 -3.3146183e-06 5.085134e-05)
(4.8769648e-05 -6.0891331e-06 3.966775e-05)
(4.6325468e-05 -5.3005895e-06 4.1417077e-05)
(7.7453272e-05 -3.6561038e-06 5.3110114e-05)
(7.2286981e-05 3.9596021e-06 7.7189033e-05)
(4.7539088e-05 -3.9015649e-06 4.3303087e-05)
(4.513348e-05 -1.5665443e-06 3.445783e-05)
(5.4080206e-05 -1.0598702e-06 5.6450527e-05)
(6.3390553e-05 -2.0982171e-06 5.9606238e-05)
(5.5170973e-05 3.7457752e-07 5.5962283e-05)
(4.8494843e-05 -2.6837286e-06 4.2613783e-05)
(7.3258419e-05 2.3503186e-06 6.8875045e-05)
(4.4957688e-05 -2.8759174e-06 3.3688083e-05)
(4.9992241e-05 -3.0836366e-06 4.3147106e-05)
(4.8548567e-05 -4.7749037e-06 4.3660975e-05)
(4.8932614e-05 -4.3873219e-06 4.1303317e-05)
(4.4899519e-05 -3.8446032e-06 3.1585225e-05)
(3.9469853e-05 -3.5372718e-06 3.3876404e-05)
(4.6981021e-05 -5.6371296e-06 4.1212252e-05)
(4.1361162e-05 -4.5938552e-06 3.3915181e-05)
(6.5542547e-05 3.1976281e-06 6.1983022e-05)
(4.2185463e-05 -3.3779661e-06 3.4309837e-05)
(5.3825828e-05 -2.229897e-06 4.4676641e-05)
(4.902853e-05 -2.4126575e-06 4.0315031e-05)
(7.490679e-05 -3.188432e-06 6.3653965e-05)
(5.6568234e-05 -4.2238307e-06 4.6445602e-05)
(3.9008643e-05 -5.125721e-06 3.2698674e-05)
(4.8322013e-05 -4.8124833e-06 4.246773e-05)
(6.6690572e-05 -5.6657273e-06 6.1820367e-05)
(4.6374518e-05 -3.8784607e-06 3.9381852e-05)
(3.6449876e-05 -6.3981191e-06 3.1470311e-05)
(5.2140895e-05 -5.5873136e-06 4.1345189e-05)
(4.6758953e-05 -5.5819233e-06 3.6431764e-05)
(3.6281339e-05 -4.8521468e-06 2.9205203e-05)
(4.2946107e-05 -2.1766863e-06 3.166613e-05)
(4.0073797e-05 -3.0224877e-06 3.1586217e-05)
(4.507798e-05 -2.3346127e-06 3.581174e-05)
(4.5842235e-05 -3.9080578e-06 3.5855733e-05)
(4.9284359e-05 -7.0046038e-08 3.6310247e-05)
(4.432885e-05 -2.4161165e-06 3.3012961e-05)
(4.0012113e-05 -5.3048442e-06 3.4076785e-05)
(3.8326367e-05 -4.6223116e-06 3.2952272e-05)
(5.364348e-05 -1.7615228e-06 4.2247614e-05)
(3.5668279e-05 -4.3389324e-06 3.1131465e-05)
(4.4908751e-05 -6.5286902e-06 3.641616e-05)
(4.9851454e-05 -3.1226861e-06 4.1102027e-05)
(5.160058e-05 -3.2420707e-06 3.9692102e-05)
(4.1781134e-05 -2.3184096e-06 3.2486883e-05)
(6.390515e-05 -2.346861e-06 4.8327486e-05)
(4.3961696e-05 -3.4956398e-06 3.4401921e-05)
(4.6969623e-05 -4.7753768e-06 3.7646184e-05)
(4.4324675e-05 -4.7948519e-06 3.7589293e-05)
(3.9367682e-05 -5.551497e-06 3.6899128e-05)
(4.9597408e-05 -7.8539227e-07 3.5114496e-05)
(5.3252346e-05 -1.749062e-06 4.1225071e-05)
(4.8712533e-05 -3.6135379e-06 4.0687906e-05)
(4.4024056e-05 -1.6970526e-06 3.298821e-05)
(5.4143057e-05 -4.1660184e-06 4.4307132e-05)
(4.9783062e-05 -9.7704455e-07 3.8210015e-05)
(6.094536e-05 -2.2003044e-06 5.269856e-05)
(4.0710409e-05 -3.3372572e-06 3.1751801e-05)
(4.3672767e-05 -3.714283e-06 3.7699609e-05)
(4.6803687e-05 -1.8902808e-06 3.4552012e-05)
(4.4382694e-05 -4.177061e-06 4.0188559e-05)
(5.2014564e-05 -4.7051057e-06 4.6171025e-05)
(3.8509669e-05 -3.9600853e-06 3.1096629e-05)
(4.5623337e-05 -4.2761893e-06 3.6034323e-05)
(6.6945673e-05 -1.0049574e-06 4.6764201e-05)
(4.4336326e-05 -5.4761762e-06 3.5592708e-05)
(4.2842259e-05 -5.6105519e-06 2.9601134e-05)
(4.3627076e-05 -1.6322158e-06 3.222409e-05)
(6.997859e-05 -6.78969e-06 5.1860595e-05)
(3.6939708e-05 -6.4463589e-06 3.1429435e-05)
(4.9713762e-05 -8.453144e-07 3.5099429e-05)
(3.7536124e-05 -4.0334432e-06 2.8824032e-05)
(4.5779054e-05 -4.7007769e-06 3.4330836e-05)
(4.7356871e-05 -2.7344226e-06 3.3711352e-05)
(5.5775595e-05 -4.4067151e-06 5.118043e-05)
(4.5276448e-05 -5.5315045e-06 3.283522e-05)
(4.625071e-05 -3.8706152e-06 3.0028813e-05)
(3.8868156e-05 -2.7539551e-06 3.0061571e-05)
(5.0980148e-05 -2.0101423e-06 3.5199715e-05)
(5.1454264e-05 -5.9875544e-07 3.5836535e-05)
(3.8054602e-05 -4.5011457e-07 2.9508242e-05)
(5.7783661e-05 2.38962e-06 3.8534978e-05)
(4.9814139e-05 -1.3334543e-06 3.7344172e-05)
(4.3502615e-05 -3.3026212e-06 3.2258218e-05)
(4.0487379e-05 -5.3642156e-06 3.0540992e-05)
(4.4956006e-05 1.0942613e-06 3.1528693e-05)
(6.4573843e-05 -5.8940031e-06 6.0060467e-05)
(4.7601981e-05 1.1651354e-06 3.6824983e-05)
(4.103296e-05 -5.3968064e-06 3.0316378e-05)
(4.8434398e-05 -4.8285024e-06 4.4764512e-05)
(5.0158773e-05 -4.783037e-06 3.5199631e-05)
(4.5943912e-05 -3.6517976e-06 3.3399515e-05)
(4.9344219e-05 -1.5409747e-06 3.2830681e-05)
(4.5483896e-05 -3.9697438e-06 4.2523469e-05)
(4.9231524e-05 -5.5354236e-06 3.7204792e-05)
(4.7155317e-05 -4.2972382e-07 3.2421279e-05)
(4.4903362e-05 -5.2368732e-06 3.56911e-05)
(7.2874628e-05 -4.1311017e-06 5.1275242e-05)
(6.287542e-05 -1.3833859e-06 4.4029943e-05)
(3.8860539e-05 -3.9399838e-06 3.0445341e-05)
(5.081897e-05 -2.842245e-06 3.3896971e-05)
(3.8067633e-05 -6.2783908e-06 3.5043663e-05)
(5.4735308e-05 -1.8566253e-06 3.7077291e-05)
(5.3681546e-05 -3.649196e-06 3.8475197e-05)
(5.6819805e-05 -1.4534325e-06 4.5637569e-05)
(5.5955589e-05 5.0041482e-06 3.4832716e-05)
(4.0820427e-05 -2.4069166e-06 3.1624557e-05)
(1.0503382e-06 -3.0371521e-06 -1.2093622e-06)
(4.7952687e-05 -5.9770971e-06 3.7057359e-05)
(4.6323601e-05 -2.96587e-06 3.2071789e-05)
(4.6365526e-05 -4.6077438e-06 3.2822966e-05)
(4.932082e-05 -5.6331667e-06 3.6406758e-05)
(4.2715249e-05 -2.2272223e-06 3.4959067e-05)
(5.0156049e-05 1.4500797e-06 3.3684923e-05)
(4.5976546e-05 -3.9680233e-06 2.9192038e-05)
(4.3555834e-05 -5.6101729e-06 2.9552934e-05)
(3.541869e-05 -4.3291295e-06 2.7654044e-05)
(5.4378856e-05 -5.4587427e-06 3.9785563e-05)
(3.5520381e-05 -2.6914937e-06 2.9118991e-05)
(4.3107696e-05 -2.4692225e-06 3.1326281e-05)
(6.5330425e-05 -5.9071426e-06 4.7049835e-05)
(4.9565864e-05 -4.7254263e-06 4.6140459e-05)
(4.2636107e-05 8.000347e-07 3.0635768e-05)
(3.5369855e-05 -2.9738047e-06 2.8547676e-05)
(3.752878e-05 -6.9321411e-06 3.1082519e-05)
(4.4098357e-05 1.2433332e-06 3.0157333e-05)
(5.3638805e-05 -4.4898889e-06 3.9950598e-05)
(3.7953118e-05 -5.9808169e-06 3.0813829e-05)
(3.8086154e-05 -3.8816968e-06 3.0034789e-05)
(4.0560687e-05 -5.2122545e-06 3.7957891e-05)
(5.6422642e-05 -1.1248733e-07 3.7511626e-05)
(4.2228612e-05 -2.7621781e-06 3.3426123e-05)
(4.165622e-05 -1.6946623e-06 2.8448517e-05)
(3.1974064e-05 -5.3315111e-06 2.5777924e-05)
(4.4024523e-05 8.6472835e-07 2.953367e-05)
(4.6337286e-05 -2.7174682e-06 3.8296799e-05)
(4.0487954e-05 -1.348895e-07 2.8937491e-05)
(4.0910548e-05 -2.8352371e-06 3.0353982e-05)
(3.3510661e-05 -5.4731667e-06 2.8505256e-05)
(6.0970588e-05 9.143741e-08 3.9994379e-05)
(6.064525e-05 -6.3458638e-06 4.5351355e-05)
(2.7852296e-06 -3.0696709e-06 -8.6803354e-07)
(3.9166232e-05 -7.8897864e-07 2.6121132e-05)
(4.2690253e-05 -3.7014739e-06 3.440236e-05)
(4.8739989e-05 3.4335061e-06 3.4549252e-05)
(7.0510993e-05 -1.9525541e-06 5.0154561e-05)
(4.2089047e-05 -1.2098385e-06 3.112248e-05)
(4.5928261e-05 4.0342631e-06 3.0270948e-05)
(4.4027117e-05 -3.3281625e-06 3.3635329e-05)
(4.030609e-05 -7.5759906e-07 2.9281909e-05)
(4.497008e-05 -2.2472477e-06 3.179744e-05)
(3.8541555e-05 -2.0472322e-06 2.6136202e-05)
(3.9482107e-05 -3.9742275e-06 2.9075092e-05)
(5.0872836e-05 -5.5360504e-06 4.5450473e-05)
(5.6807514e-05 -2.3614834e-06 4.6424648e-05)
(3.8297534e-05 -5.5304523e-06 2.9473207e-05)
(6.0815812e-05 -6.1009205e-06 6.2550629e-05)
(5.7123507e-05 -6.7927853e-06 4.4988195e-05)
(4.2368058e-05 2.650901e-06 2.79723e-05)
(3.6561249e-05 -7.6089151e-07 2.6048261e-05)
(3.8964047e-05 -1.5815856e-06 2.8647717e-05)
(3.9301316e-05 -1.0719903e-06 2.6894932e-05)
(3.7692553e-05 -2.0713225e-06 2.7576299e-05)
(3.6834521e-05 -3.1059488e-06 2.6029147e-05)
(4.3084406e-05 -2.9751547e-06 3.0812876e-05)
(4.6409972e-05 2.6106302e-06 2.8290324e-05)
(3.3820437e-05 -2.7593206e-06 2.5499531e-05)
(5.9147493e-05 -1.7717206e-06 4.1368093e-05)
(4.7997666e-05 2.6854582e-06 3.197675e-05)
(3.4621391e-05 -9.9928025e-07 2.4559984e-05)
(4.6456459e-05 -6.0726499e-06 4.4985722e-05)
(3.7120182e-05 -2.3180244e-06 2.5154523e-05)
(3.1296718e-05 -4.5333693e-06 2.4464516e-05)
(4.3812742e-05 -5.2224341e-06 3.8027069e-05)
(4.0780346e-05 -3.0240457e-06 2.8137789e-05)
(4.0095501e-05 -3.1278702e-06 3.1896264e-05)
(3.1020342e-05 -2.714326e-06 2.2695444e-05)
(3.3537793e-05 -1.0760194e-06 2.4244186e-05)
(3.8117825e-05 -3.695907e-06 3.0239226e-05)
(3.8649154e-05 -4.6119424e-07 2.4769359e-05)
(3.2984308e-05 -1.0449235e-06 2.2437109e-05)
(3.6059197e-05 -2.3830296e-06 2.8591545e-05)
(3.6067367e-05 -2.8959281e-06 2.3440297e-05)
(3.242607e-05 -2.7046554e-06 2.5219755e-05)
(4.0792261e-05 -1.7374054e-06 3.0631629e-05)
(6.4380748e-05 -6.2281135e-06 4.7387745e-05)
(4.2063277e-05 -5.4439858e-07 2.8131578e-05)
(3.0367437e-05 -2.4780254e-06 2.4238994e-05)
(3.6574745e-05 -6.0762589e-06 2.8047218e-05)
(5.4576743e-05 -4.5629899e-06 3.9614723e-05)
(6.2648253e-05 -7.629826e-06 4.7918215e-05)
(3.3724445e-05 -3.5809048e-06 2.5711212e-05)
(5.0152213e-05 -4.9729582e-06 4.7115724e-05)
(5.1448368e-05 -5.8265676e-06 4.9280653e-05)
(4.3882674e-05 -5.2913287e-06 4.1524054e-05)
(5.3788682e-05 -3.7653438e-06 5.1715035e-05)
(4.5750938e-05 -4.3607215e-06 4.3422743e-05)
(2.8337572e-05 -2.6915931e-06 2.0322623e-05)
(3.2981248e-05 8.6795187e-07 2.4212268e-05)
(4.1301142e-05 3.4779792e-06 2.8325926e-05)
(6.1424357e-05 -1.2924781e-06 4.2590011e-05)
(5.2641894e-05 -2.411378e-06 5.1304662e-05)
(4.849175e-05 -2.0294062e-06 4.9189272e-05)
(5.097398e-05 -1.3190858e-06 4.7229675e-05)
(5.5545445e-05 -4.4899646e-06 4.1973955e-05)
(3.4552259e-05 -6.6670427e-07 2.6106376e-05)
(4.806561e-05 -2.4137416e-06 4.6412447e-05)
(7.3482033e-05 -1.2618243e-06 4.8576857e-05)
(6.443345e-05 -3.7640311e-06 4.478392e-05)
(3.8874902e-05 -2.6876845e-07 2.693575e-05)
(4.0919342e-05 2.2462004e-06 3.0143861e-05)
(3.3244868e-05 5.8155425e-07 2.4302279e-05)
(6.7071824e-05 -4.4200615e-06 4.9647822e-05)
(2.9684315e-05 -4.8325453e-06 2.3466713e-05)
(4.5124625e-05 -3.9825787e-06 3.8332927e-05)
(5.0091329e-05 2.1269084e-06 3.5474446e-05)
(4.1380428e-05 -4.2274076e-06 3.0742528e-05)
(3.2555232e-05 -1.1497421e-06 2.6019602e-05)
(3.870204e-05 -1.3411533e-06 2.859632e-05)
(4.4722549e-05 -1.9425968e-06 3.3347182e-05)
(3.7241358e-05 -2.4167735e-06 2.6797929e-05)
(3.9504704e-05 8.0996287e-07 2.765496e-05)
(4.1253497e-05 -2.6843799e-06 3.1234666e-05)
(3.378473e-05 2.036226e-07 2.3455244e-05)
(3.9423466e-05 3.0045185e-06 2.6613049e-05)
(3.2627565e-05 -1.2351602e-06 2.3987721e-05)
(3.4665703e-05 -3.5003322e-06 2.8044117e-05)
(3.0590981e-05 -1.8942052e-06 2.3395559e-05)
(3.6223844e-05 -1.7783147e-06 2.674911e-05)
(3.5237956e-05 -2.0959276e-06 2.7865465e-05)
(3.6999372e-05 -3.2232929e-07 2.5205726e-05)
(4.5615167e-05 8.9227394e-07 3.4826033e-05)
(3.2967249e-05 -9.9256791e-07 2.4548628e-05)
(3.6951707e-05 2.9895332e-06 2.5754902e-05)
(3.7039304e-05 -3.7391305e-06 2.8700248e-05)
(4.456443e-05 2.4187387e-07 3.2853811e-05)
(4.0984908e-05 -1.4529779e-06 3.2775261e-05)
(3.8479951e-05 -3.0044771e-06 3.1178529e-05)
(3.6014736e-05 -2.8711173e-06 2.8528834e-05)
(3.3871167e-05 -5.3136193e-07 2.4432613e-05)
(3.0164896e-05 1.0809386e-06 2.2335293e-05)
(4.1139615e-05 -2.3895508e-06 3.3204852e-05)
(3.431965e-05 2.8239102e-06 2.4814752e-05)
(3.9510084e-05 2.0345963e-07 2.9046353e-05)
(3.7069361e-05 -1.6589343e-06 3.175431e-05)
(3.2229907e-05 -1.8613988e-06 2.5032896e-05)
(3.9182979e-05 1.5754139e-06 3.0171133e-05)
(4.3400669e-05 1.7723535e-06 3.3635867e-05)
(3.5527835e-05 -8.9022797e-07 2.8870087e-05)
(5.0710107e-05 -4.040671e-06 4.098929e-05)
(3.1724025e-05 -3.5702165e-06 2.6047989e-05)
(3.5042288e-05 -1.8499541e-06 2.8496848e-05)
(3.6104117e-05 -2.0108256e-06 2.8866175e-05)
(3.7694484e-05 -3.293091e-06 3.2711493e-05)
(4.5657413e-05 -1.9932582e-06 3.8945112e-05)
(5.0341339e-05 -1.8418943e-06 4.0417894e-05)
(5.6589357e-05 -1.6996408e-06 4.3956933e-05)
(3.5039964e-05 -3.7704147e-06 2.9650121e-05)
(3.8762727e-05 -4.72422e-06 3.6570997e-05)
(3.6874211e-05 -4.5882372e-06 3.4993371e-05)
(5.2366766e-05 -4.4540416e-06 4.2668966e-05)
(4.2578027e-05 -3.5633726e-06 3.8435501e-05)
(3.408341e-05 -3.1805538e-06 2.8126905e-05)
(3.7112985e-05 -6.9675907e-06 3.7974149e-05)