/*--------------------------------*- C++ -*----------------------------------*\
  =========                 |
  \\      /  F ield         | OpenFOAM: The Open Source CFD Toolbox
   \\    /   O peration     | Website:  https://openfoam.org
    \\  /    A nd           | Version:  11
     \\/     M anipulation  |
\*---------------------------------------------------------------------------*/
FoamFile
{
    format      ascii;
    class       volVectorField;
    location    "906";
    object      wallShearStress;
}
// * * * * * * * * * * * * * * * * * * * * * * * * * * * * * * * * * * * * * //

dimensions      [0 2 -2 0 0 0 0];

internalField   uniform (0 0 0);

boundaryField
{
    wall-fluid_domain
    {
        type            calculated;
        value           nonuniform List<vector> 
34907
(
(6.3372813e-05 1.2175171e-05 6.0697312e-06)
(6.2387704e-05 1.216973e-06 3.8858415e-05)
(7.9106297e-05 -1.165115e-05 3.672616e-05)
(6.7384976e-05 -1.6215135e-05 2.4351177e-05)
(-5.1087884e-06 -1.2104257e-07 -3.3884949e-06)
(6.8744331e-05 -1.7435505e-05 2.8894807e-05)
(-5.6104052e-06 2.2303035e-07 -3.3088164e-06)
(5.0676794e-05 -1.3505719e-05 1.6373121e-05)
(6.3198874e-05 -1.2029176e-05 2.9715768e-05)
(6.3698217e-05 1.5452752e-05 1.6521608e-05)
(6.9019981e-05 1.446354e-05 2.8561508e-05)
(6.2439091e-05 1.4612535e-05 2.3128998e-05)
(5.7143087e-05 -1.0903883e-05 6.0071008e-07)
(5.3181047e-05 1.1740799e-05 -5.2516983e-07)
(7.0857379e-05 1.3859422e-05 3.1719691e-05)
(5.5613388e-05 -1.215893e-05 3.4847557e-06)
(5.1173816e-05 1.1055017e-05 3.200808e-06)
(6.1057707e-06 -5.543245e-06 -1.9204814e-06)
(9.2736803e-05 1.7181172e-06 4.6174274e-05)
(6.3688769e-05 -1.6306072e-05 1.3143131e-05)
(6.0202119e-05 -1.4121995e-05 2.9847809e-05)
(5.4139445e-05 -1.4802277e-05 1.9515505e-05)
(6.7490497e-05 -2.7620966e-06 4.1691077e-05)
(4.2728291e-06 4.5851755e-06 -3.0498163e-07)
(5.9631257e-05 1.2710796e-05 1.1551383e-05)
(6.2738535e-05 -1.4422845e-05 1.2222669e-05)
(5.1455958e-05 -1.3409876e-05 1.5712399e-05)
(6.2006999e-05 1.4270826e-05 2.4074473e-05)
(5.5152608e-05 -6.7731834e-06 -9.4467778e-06)
(7.0375721e-05 1.0841515e-05 3.4787116e-05)
(5.912145e-05 1.6060722e-05 1.1501337e-05)
(6.8447266e-05 1.521497e-05 3.0216968e-05)
(5.0570236e-05 1.1641473e-05 -9.2036997e-06)
(6.0621297e-05 -8.6482136e-06 3.0605747e-05)
(6.2007611e-05 -6.1625203e-06 3.6806597e-05)
(6.7900237e-05 1.4146872e-05 3.5589354e-05)
(7.0385814e-05 7.5883294e-06 4.075969e-05)
(5.9662174e-05 -1.0455305e-05 3.0689802e-05)
(2.6749409e-05 -1.0782521e-05 -1.0370311e-05)
(6.8333581e-05 -1.4500638e-05 2.609204e-05)
(6.0885186e-05 -8.740324e-06 5.8163501e-06)
(7.007277e-05 -5.7003198e-06 4.3757242e-05)
(6.6775148e-05 1.157644e-05 5.0116735e-06)
(6.2071241e-05 3.8462409e-06 3.7484268e-05)
(2.4299135e-05 7.2874056e-06 -7.8682092e-06)
(3.941596e-05 -4.83355e-06 -1.3193641e-05)
(6.1053661e-05 -1.3136583e-05 2.7216961e-05)
(5.5118923e-05 1.5069952e-05 1.7759097e-05)
(7.1537381e-05 -9.0945417e-06 4.1181966e-05)
(4.6818842e-05 3.4018323e-06 -1.9015252e-05)
(5.5851551e-05 1.6254606e-05 2.162144e-05)
(7.2759553e-05 -1.2668646e-05 2.6346259e-05)
(7.223469e-05 1.3878503e-05 1.5247871e-05)
(6.3704031e-05 7.6187357e-06 3.8672538e-05)
(6.1037015e-05 -1.2863402e-05 1.0257298e-05)
(-3.9662171e-06 8.4070983e-08 -2.4606926e-06)
(6.7343022e-05 -1.2798831e-05 2.1724149e-05)
(6.7706043e-05 1.5244219e-05 1.4829415e-05)
(-2.4053086e-06 8.4995041e-07 -1.431648e-06)
(-6.3677278e-07 -1.8519481e-06 -9.586834e-07)
(-2.247374e-06 -1.1228991e-06 -9.2636356e-07)
(-3.9067466e-06 -7.3158784e-07 -1.4411461e-06)
(7.0670854e-05 -1.4268299e-05 1.384602e-05)
(-1.1944713e-06 1.433584e-06 -6.8017407e-07)
(-2.6104535e-06 1.1996103e-06 -9.4746631e-07)
(5.6799326e-05 -9.3326141e-06 -6.965594e-06)
(6.5958487e-05 1.4211658e-05 2.4435455e-05)
(6.2187742e-05 1.1914354e-05 9.531492e-06)
(-1.1331579e-06 -1.6824351e-06 -1.1786284e-06)
(6.3504663e-05 -7.9714777e-06 6.4650658e-06)
(6.0405895e-05 -1.3627357e-05 1.5621451e-05)
(5.5432737e-05 7.1949089e-06 -7.6872395e-06)
(6.4704734e-05 1.329623e-05 2.7904632e-05)
(6.2189903e-05 -1.39071e-05 1.9540933e-05)
(5.8430879e-05 9.1687696e-06 3.6041802e-05)
(6.2452063e-05 1.606923e-05 8.3572818e-06)
(7.3622005e-05 -1.1428349e-05 4.0328886e-05)
(6.2872195e-05 1.3661674e-05 2.7407551e-05)
(5.2697133e-05 -6.0338432e-06 3.2730504e-05)
(6.8221588e-05 1.6337623e-05 1.8672464e-05)
(6.4327175e-05 7.1257294e-06 3.7954686e-05)
(7.4187133e-05 -1.1289524e-05 3.4383981e-05)
(-4.8216431e-06 -5.3366596e-07 -1.8048428e-06)
(5.9778741e-05 1.2275178e-05 3.0442927e-05)
(6.2491686e-05 -1.318127e-05 3.0601542e-05)
(5.6070127e-05 -8.3978476e-06 3.1072891e-06)
(5.7930136e-05 -9.4218569e-06 5.1833637e-06)
(5.9365559e-05 -1.6848591e-05 1.8861577e-05)
(6.2020127e-05 -1.3599634e-05 2.2401537e-05)
(6.3648194e-05 7.1127667e-06 2.128813e-06)
(5.9930635e-05 1.3303796e-05 2.9860016e-05)
(6.2871164e-05 -6.664224e-06 3.5716367e-05)
(6.3104419e-05 8.9739316e-06 4.1761641e-06)
(6.1978075e-05 6.9131438e-06 3.4875757e-05)
(6.6182439e-05 1.5595698e-05 2.6534286e-05)
(7.267431e-05 1.4592877e-05 2.3447452e-05)
(6.4896885e-05 1.4645268e-05 1.2357344e-05)
(6.5807465e-05 1.2874024e-05 1.3061005e-05)
(6.4370113e-05 -1.5131073e-05 2.2831271e-05)
(6.7506763e-05 1.036262e-05 3.7026256e-05)
(6.1976689e-05 -1.3838721e-05 1.2866053e-05)
(-7.2405118e-06 4.7303598e-07 -1.5661422e-06)
(3.3557184e-05 -7.1563669e-06 -1.3268756e-05)
(6.6742878e-05 -1.6851206e-05 1.5253817e-05)
(7.9491352e-05 -9.8625635e-06 3.8238919e-05)
(3.5466964e-05 3.6523594e-06 -1.6390405e-05)
(8.2884224e-05 1.9367093e-06 4.9304749e-05)
(5.9051945e-05 -1.0813132e-05 7.3956395e-06)
(6.6883245e-05 -1.3404723e-05 2.634129e-05)
(6.2791033e-05 -1.4430049e-06 3.8210978e-05)
(6.9889405e-05 1.2540283e-05 1.6617686e-05)
(6.242515e-05 1.114649e-05 7.3730889e-06)
(5.9698139e-05 2.4200541e-06 3.7587904e-05)
(6.5260657e-05 8.4522082e-06 3.5713716e-05)
(6.9509642e-05 -3.9149006e-06 4.2530819e-05)
(6.5785929e-05 1.6064918e-05 2.0030205e-05)
(6.4787306e-05 1.311756e-05 1.5380045e-05)
(6.9186707e-05 -7.9009096e-06 3.6429808e-05)
(5.2622675e-05 -1.3686979e-05 1.6004929e-05)
(6.4494061e-05 -1.1650536e-05 2.8656933e-05)
(7.6018142e-05 1.1499307e-05 3.8619927e-05)
(7.0133385e-05 -1.0837727e-05 3.4187176e-05)
(4.3510175e-05 -8.3667421e-06 -1.421071e-05)
(4.2052402e-05 1.0134825e-05 -1.6003224e-05)
(5.8648742e-05 -1.3074327e-05 2.6412409e-05)
(6.7542769e-05 -1.6381697e-05 1.7812144e-05)
(5.3651254e-05 -1.4008283e-05 1.8892479e-05)
(7.7251243e-05 9.6878264e-06 3.8269223e-05)
(6.2757873e-05 -1.254454e-05 2.1360316e-05)
(7.4964316e-05 -1.086826e-05 4.0092324e-05)
(6.3634862e-05 -1.2339979e-05 2.4062765e-05)
(6.2458956e-05 1.248519e-05 2.5725066e-05)
(6.4559717e-05 1.2853317e-05 1.136101e-05)
(6.1671437e-05 1.2315545e-05 1.0553947e-05)
(4.5227386e-05 -7.9314059e-06 -2.9338549e-06)
(-2.0413438e-07 -1.6441585e-06 -9.6870286e-07)
(5.6026369e-05 1.0217547e-05 -5.6135451e-06)
(-2.7742284e-07 1.7800626e-06 -5.7831692e-07)
(5.8925109e-05 1.3132957e-05 2.1188437e-05)
(6.1835009e-05 1.1006933e-05 2.733995e-05)
(6.0829787e-05 7.8430006e-07 3.9161825e-05)
(5.8058021e-05 -1.2331416e-05 9.7865305e-06)
(6.0625829e-05 -1.206611e-05 1.1801577e-05)
(2.7706737e-05 -7.5232009e-06 -9.6705223e-06)
(2.7842105e-05 9.399847e-06 -9.3244897e-06)
(2.6566473e-05 -8.4075606e-06 -8.7559882e-06)
(6.2688424e-05 1.3577234e-05 2.5474473e-05)
(6.3608257e-05 1.3049983e-05 1.816121e-05)
(2.513956e-05 8.7809477e-06 -8.4532855e-06)
(-2.7339658e-06 7.495662e-07 -1.8498367e-06)
(6.0020576e-05 1.2257273e-05 2.6487174e-05)
(-3.6516757e-07 1.8084911e-06 -1.4663783e-06)
(4.1750102e-05 -7.7332019e-06 -1.0425935e-05)
(-1.6565633e-06 1.6602941e-06 -1.0039427e-06)
(-3.1657363e-06 7.7930381e-07 -1.9515421e-06)
(-2.0888997e-07 -2.1357278e-06 -1.3264084e-06)
(4.7261075e-05 8.6972801e-06 -1.119075e-05)
(-1.5934426e-06 -1.3554779e-06 -1.7748114e-06)
(-1.1882572e-06 -2.16073e-06 -7.7987635e-07)
(-6.3164602e-06 -4.636554e-08 -2.7613961e-06)
(-2.9024993e-06 -1.1728165e-06 -1.5534767e-06)
(5.8812523e-05 1.5380333e-05 2.1508512e-05)
(5.144408e-05 -8.1814761e-06 4.8887019e-06)
(1.7169244e-05 8.6073476e-06 -5.0247605e-06)
(6.3965604e-05 -5.6261101e-06 5.5974253e-06)
(5.2607004e-05 -8.6540436e-06 -9.1077123e-06)
(5.3967472e-05 8.2971573e-06 -9.4873219e-06)
(1.0537959e-05 6.4865091e-06 -1.8081148e-06)
(6.9726644e-05 -1.2981598e-05 2.0339368e-05)
(5.7184812e-05 7.4676236e-06 3.7127245e-06)
(6.8936252e-05 7.7944614e-06 7.5157316e-06)
(6.3283554e-05 -1.4031916e-05 2.3029008e-05)
(5.4768086e-05 -1.0778142e-05 8.6347949e-06)
(1.1649343e-05 -6.9785494e-06 -4.0664677e-06)
(2.9056106e-05 -9.3886976e-06 -1.0278321e-05)
(-4.8896829e-06 -3.1468999e-07 -3.222995e-06)
(7.5598939e-05 -1.0239567e-05 3.132983e-05)
(2.6954616e-05 7.5769799e-06 -7.259648e-06)
(7.078425e-05 -1.0405333e-05 3.3104757e-05)
(7.4561073e-05 1.1933992e-05 3.5643361e-05)
(6.1619846e-05 1.3485931e-05 1.4689492e-05)
(5.969238e-05 -1.0235095e-05 2.5862723e-05)
(6.044662e-05 4.0153589e-06 3.6945667e-05)
(6.9440548e-05 -3.8230044e-06 4.2551518e-05)
(3.2926715e-05 -1.0030968e-05 -1.2270363e-05)
(6.5756806e-05 -1.3082566e-05 2.442769e-05)
(2.9624723e-05 -8.884864e-06 -1.3308126e-05)
(3.0204889e-05 -5.889786e-06 -1.0660517e-05)
(3.27267e-05 -5.3379012e-06 -1.3132043e-05)
(2.9384e-05 8.8543281e-06 -1.01141e-05)
(6.9772951e-05 -1.3448671e-05 1.7144082e-05)
(3.2181102e-05 7.7224968e-06 -1.0755753e-05)
(7.1444903e-05 1.2052271e-05 3.4995143e-05)
(6.1879794e-05 9.7711876e-06 8.9296127e-06)
(1.6565085e-05 -1.2220539e-05 -3.5037343e-06)
(3.3783131e-05 -9.3357886e-06 -1.2311089e-05)
(2.9788502e-05 7.2760531e-06 -1.0000337e-05)
(-3.693625e-06 -7.1251734e-07 -1.6604482e-06)
(6.4558294e-05 1.4401795e-05 1.4322919e-05)
(3.2325568e-05 1.1385427e-05 -1.0258055e-05)
(3.2273108e-05 7.6891609e-06 -1.4670784e-05)
(6.2809425e-05 2.9485493e-06 3.6109214e-05)
(-5.6530687e-06 -2.2819729e-08 -3.1076234e-06)
(7.1043147e-05 -3.1597434e-06 3.9438324e-05)
(6.3474667e-05 1.6062892e-05 1.7494061e-05)
(6.600018e-05 -1.3563463e-05 1.5189312e-05)
(5.0504359e-05 -6.8117268e-06 -5.9094057e-06)
(4.7968719e-05 8.4426239e-06 -1.9488059e-06)
(5.2361594e-05 8.6344953e-06 -7.6152359e-06)
(6.1665985e-05 -8.6660144e-06 -2.7818e-06)
(-4.886084e-06 3.9242126e-07 -2.6206869e-06)
(2.2202996e-05 9.003929e-06 -5.2748367e-06)
(6.160045e-06 6.5043286e-06 -7.8607314e-07)
(6.0116967e-05 -1.2172972e-05 2.456686e-05)
(7.1993223e-05 -1.1190589e-05 1.7037504e-05)
(7.975769e-06 -5.2639243e-06 -3.057827e-06)
(-1.3160044e-06 1.6658717e-06 -1.5927398e-06)
(-2.0782682e-06 1.2427916e-06 -1.2650309e-06)
(6.6024822e-05 1.2709621e-05 2.4832928e-05)
(3.717913e-06 4.0441183e-06 -1.6576668e-06)
(3.4347591e-05 -7.5371234e-06 -1.3941732e-05)
(3.3575226e-05 -7.0537455e-06 -1.2274077e-05)
(6.8044555e-05 1.1354215e-05 2.7106378e-05)
(3.6507609e-05 5.0920013e-06 -1.6247433e-05)
(3.5551563e-05 8.1588258e-06 -1.0781974e-05)
(-3.0273845e-07 -2.1012021e-06 -1.5933291e-06)
(-2.0127228e-06 -2.0557655e-06 -8.7611986e-07)
(7.9582763e-07 -3.8092414e-06 -7.780419e-07)
(4.8138469e-06 -5.4934398e-06 -1.8287178e-06)
(1.1323976e-06 2.4207317e-06 -1.3327857e-06)
(2.9862967e-05 -6.6431974e-06 -8.5865753e-06)
(3.5608478e-05 7.8142222e-06 -1.0416692e-05)
(3.4766283e-05 -2.6761142e-06 -1.3178885e-05)
(3.7464124e-05 -2.9553979e-06 -1.2591936e-05)
(2.1589579e-05 -1.1425903e-05 -6.2835238e-06)
(3.5982365e-05 5.5298242e-06 -1.1964326e-05)
(1.0111226e-06 -2.4474535e-06 -1.8047737e-06)
(2.6602935e-07 2.1534088e-06 -9.5433643e-07)
(3.459216e-05 7.4504653e-06 -1.0027148e-05)
(4.1350237e-05 -7.5366413e-06 -1.3814334e-05)
(6.8203861e-05 1.1285779e-05 2.5146737e-05)
(6.212323e-05 1.1374145e-05 1.1477124e-05)
(5.9698289e-05 1.3091173e-05 1.9108962e-05)
(3.4179542e-05 4.1877333e-06 -9.6816461e-06)
(5.9469402e-06 5.1988651e-06 -1.2616472e-06)
(2.392804e-06 3.9179182e-06 -6.8980066e-07)
(5.9294512e-05 1.1361518e-05 1.2039507e-05)
(1.5268847e-07 -2.7857218e-06 -6.4264077e-07)
(-2.4853633e-07 2.8954662e-06 -9.7719553e-07)
(-7.4093402e-07 2.2487402e-06 -6.4869837e-07)
(8.9221264e-09 -2.8010174e-06 -1.3143328e-06)
(2.130129e-06 2.9635008e-06 -1.6252062e-06)
(5.6467344e-05 -1.2637257e-05 1.1970771e-05)
(2.9398097e-06 -3.5803824e-06 -1.6993766e-06)
(3.1039526e-06 -5.4068374e-06 -7.131357e-07)
(7.5843507e-06 -6.657926e-06 -2.6500107e-06)
(4.4648353e-05 6.4505469e-06 -3.7463846e-06)
(6.3272739e-05 -4.8837612e-06 -5.9102498e-06)
(1.4375218e-06 -3.6302492e-06 -9.0541031e-07)
(5.672118e-05 -1.2737905e-05 1.3819102e-05)
(2.699186e-07 -2.8057618e-06 -5.4190562e-07)
(9.7320744e-07 2.4444917e-06 -9.0588428e-07)
(5.7515864e-07 2.4426825e-06 -1.1017362e-06)
(6.031665e-05 1.3535931e-05 2.2067044e-05)
(-3.2246073e-06 -1.5088524e-06 -2.0231186e-06)
(5.8921111e-05 -1.1723306e-05 1.9437223e-05)
(6.2482958e-06 7.1500339e-06 -9.513653e-07)
(6.7038506e-05 -1.4441956e-05 2.4795235e-05)
(-3.8983143e-06 -5.8802707e-07 -2.43583e-06)
(1.0834487e-05 9.5829267e-06 -1.7729445e-06)
(3.9199202e-05 -5.2149445e-06 -1.0870914e-05)
(-5.2640906e-06 2.3355686e-08 -4.2347499e-06)
(3.8824445e-05 2.4115271e-06 -1.2412822e-05)
(3.4451241e-05 -2.4797748e-06 -1.3816165e-05)
(8.2424841e-06 -4.8596305e-06 -3.1160517e-06)
(-2.8931867e-06 -1.2148796e-06 -1.9113655e-06)
(3.9518539e-05 5.692418e-06 -1.6009975e-05)
(5.1442843e-05 1.0427458e-05 -1.1892557e-05)
(4.4411585e-05 -7.5484672e-06 -1.3169851e-05)
(-5.9833373e-06 -4.8152067e-07 -2.0321631e-06)
(-4.5540757e-06 2.8436292e-07 -2.7041475e-06)
(4.4427375e-05 -8.9315562e-06 -1.1499878e-05)
(-5.7885526e-06 1.8874958e-08 -2.7797914e-06)
(4.9505142e-05 6.0002306e-06 -9.3862876e-06)
(3.9484749e-05 9.4955812e-06 -1.1282808e-05)
(-2.2422541e-06 1.6618537e-06 -1.4608035e-06)
(-4.3889064e-06 -9.0841614e-07 -2.0620445e-06)
(3.9426673e-05 -5.7166629e-06 -6.4501107e-06)
(5.3802565e-05 4.3457159e-06 -2.9865318e-07)
(-4.399242e-06 -4.9384961e-07 -2.9450801e-06)
(-3.0501897e-06 1.0210049e-06 -2.0201875e-06)
(-6.0433541e-06 -2.9545808e-07 -2.7362924e-06)
(3.4426471e-05 -4.2864971e-06 -1.3031823e-05)
(5.0687906e-05 -7.6014644e-06 1.7275351e-06)
(-3.6510181e-06 -1.170339e-06 -2.0807746e-06)
(-4.7612593e-06 -6.7969731e-07 -2.6284334e-06)
(-6.5642094e-06 -9.2872575e-08 -2.8791259e-06)
(4.479149e-05 3.8462404e-06 -1.7823049e-05)
(-5.247055e-06 1.713377e-09 -3.579009e-06)
(-4.8787628e-06 -3.5017502e-07 -3.1826958e-06)
(-3.7250922e-06 -1.0085855e-06 -2.2612339e-06)
(-5.4069612e-06 -3.6615708e-07 -3.0973631e-06)
(-4.2513215e-06 -1.0774338e-06 -2.1172159e-06)
(4.1035039e-05 -1.296315e-06 -1.2934575e-05)
(-6.0188896e-06 -3.3116612e-07 -2.8261977e-06)
(4.468312e-05 -6.1335818e-06 -1.2257675e-05)
(-3.1338454e-06 -9.9661348e-07 -2.6763066e-06)
(-5.1765108e-06 -5.0820349e-07 -2.8225901e-06)
(-5.7636373e-06 -4.4495879e-07 -3.3245941e-06)
(3.869898e-06 4.4652394e-06 -2.2313734e-06)
(6.1440971e-06 5.6349078e-06 -1.7049605e-06)
(-5.7387254e-06 4.8070162e-08 -4.2371785e-06)
(3.941106e-05 -4.548252e-06 -1.1926534e-05)
(-2.3431617e-07 2.2242842e-06 -1.3352486e-06)
(4.3066494e-05 6.5524294e-06 -1.298579e-05)
(4.8798062e-05 2.569599e-06 -1.1934844e-05)
(1.3927005e-05 8.4445747e-06 -3.8993436e-06)
(-6.036267e-06 2.3386959e-08 -3.1369477e-06)
(1.2318581e-05 -8.135475e-06 -4.2536495e-06)
(4.1709398e-05 1.2808756e-06 -1.4013618e-05)
(3.5757263e-05 -1.7855796e-06 -1.1888657e-05)
(3.7633557e-05 6.3498253e-06 -1.1113862e-05)
(4.5901847e-06 -4.5452768e-06 -2.2062614e-06)
(5.4224609e-06 -5.2255718e-06 -1.6706318e-06)
(4.6279785e-05 -1.5408379e-06 -1.7298925e-05)
(4.6224548e-05 -1.9654776e-06 -1.2342348e-05)
(2.0677677e-06 4.4946874e-06 -6.9133734e-07)
(2.102612e-06 3.0851501e-06 -1.3941849e-06)
(7.2883865e-07 3.0293483e-06 -6.3661975e-07)
(-4.0431751e-06 2.8621936e-07 -2.925854e-06)
(4.3605222e-05 -1.5707424e-06 -1.0752597e-05)
(-4.3620464e-06 -1.029189e-06 -2.2545997e-06)
(-4.7390613e-06 -3.2062222e-07 -4.0591266e-06)
(4.1060023e-05 -2.7603409e-06 -1.5435001e-05)
(6.060175e-05 1.2370149e-05 1.5782548e-05)
(4.5110636e-05 1.5345142e-06 -1.2022121e-05)
(4.8869954e-05 -3.4044484e-06 -1.2201864e-05)
(4.4085408e-05 -5.6479345e-06 -9.8985842e-06)
(4.227157e-05 1.0520317e-07 -1.7623279e-05)
(4.5833674e-05 7.4800969e-08 -1.1132221e-05)
(-5.6111388e-06 -2.3857718e-07 -3.5759926e-06)
(4.6029993e-05 -9.9402588e-07 -1.3172329e-05)
(-5.4381631e-06 1.476884e-07 -3.9823866e-06)
(4.9537319e-05 1.036421e-06 -1.4747162e-05)
(-1.687722e-06 1.899117e-06 -8.966883e-07)
(-4.9933484e-06 -4.1587782e-07 -2.6612126e-06)
(2.3250746e-06 4.6782838e-06 -9.754514e-07)
(-5.6749749e-06 -4.7626759e-07 -2.9754728e-06)
(-2.9101783e-06 1.3381289e-06 -1.2280251e-06)
(4.8702917e-05 1.823054e-06 -1.0849366e-05)
(3.8661962e-05 -8.4255183e-07 -1.3117443e-05)
(4.6624731e-05 6.6216077e-07 -1.2550105e-05)
(1.0538801e-05 6.73558e-06 -3.105592e-06)
(4.6298618e-05 -2.3767322e-06 -1.0090181e-05)
(-4.2423431e-06 4.4050755e-07 -3.0951974e-06)
(6.2966112e-06 7.6297002e-06 -1.1578592e-06)
(-1.0717814e-06 -2.153818e-06 -1.7847561e-06)
(4.9228652e-05 2.5911389e-06 -1.5421529e-05)
(-7.3239115e-06 -8.3622176e-08 -2.7756867e-06)
(1.9592682e-06 3.553421e-06 -1.606042e-06)
(6.4005801e-05 1.0822145e-05 1.6735293e-05)
(1.2342007e-06 2.9220991e-06 -1.1956895e-06)
(-5.9053759e-06 -9.67599e-08 -2.851155e-06)
(1.2394643e-07 2.9953877e-06 -3.5911765e-07)
(-5.6520328e-06 2.1757705e-07 -3.168543e-06)
(-3.9664293e-06 -4.5775077e-07 -2.599685e-06)
(3.0092954e-05 -7.3095669e-06 -8.4895316e-06)
(1.9340335e-07 -2.7323099e-06 -1.5149919e-06)
(6.4232932e-05 -1.0721369e-05 2.7455578e-05)
(2.7998107e-05 5.063849e-06 -8.7536949e-06)
(6.3417466e-05 -6.5263314e-06 3.6723578e-05)
(6.8872709e-05 -1.2263235e-05 3.3421516e-05)
(6.2346153e-05 5.4773334e-06 3.6892146e-05)
(6.3845632e-05 1.0327613e-05 1.2637739e-05)
(2.0945295e-05 1.1083746e-05 -4.0233788e-06)
(3.9992637e-06 4.0977832e-06 -1.8562637e-06)
(9.6135992e-06 8.3697076e-06 -2.4914342e-06)
(1.5859274e-05 -8.8429852e-06 -4.3044366e-06)
(3.0410769e-06 -3.5446514e-06 -1.5728281e-06)
(5.1447599e-05 5.0198509e-06 -2.680275e-06)
(2.0562327e-06 -2.7216922e-06 -1.8523471e-06)
(-5.822128e-06 -2.2006918e-08 -3.1596483e-06)
(-2.6247573e-06 -1.6714806e-06 -1.2081488e-06)
(7.125521e-05 -6.5389372e-06 -4.3121049e-06)
(6.4403882e-06 4.8080962e-06 -2.2690344e-06)
(2.6382889e-06 -5.0581157e-06 -1.2325774e-06)
(3.2173991e-06 5.0797945e-06 -8.6520438e-07)
(-5.3215385e-06 3.677829e-07 -2.8922791e-06)
(3.2402922e-06 4.4470451e-06 -1.3821104e-06)
(3.2334423e-05 -8.8702832e-06 -8.6515139e-06)
(4.9146312e-06 5.3079855e-06 -1.7871133e-06)
(1.2240782e-06 4.1666918e-06 -6.7469364e-07)
(-6.5067273e-06 3.3706139e-07 -2.3208165e-06)
(-5.0511343e-06 3.4436264e-07 -3.1872489e-06)
(3.9430746e-05 -4.5699311e-06 -1.4608331e-05)
(1.1851359e-05 7.0217342e-06 -3.2048071e-06)
(4.6765717e-06 6.7028803e-06 -6.9971499e-07)
(3.0311538e-05 8.7542865e-06 -7.2032235e-06)
(1.2059843e-07 3.554829e-06 -6.5429257e-07)
(4.3483427e-05 4.3604093e-06 -1.7635501e-05)
(2.3693924e-07 2.4100681e-06 -1.4335129e-06)
(-1.4520849e-06 2.0896995e-06 -7.7846574e-07)
(-6.2048114e-06 -9.5667651e-08 -3.2755229e-06)
(4.210018e-05 -8.5056261e-06 -1.3386455e-05)
(-1.8861626e-06 1.7465629e-06 -1.6633117e-06)
(9.2914148e-06 -7.2536513e-06 -1.835033e-06)
(-2.8676386e-06 1.1151794e-06 -1.27206e-06)
(6.121809e-05 -3.3267677e-06 3.6405169e-06)
(3.7504154e-05 5.4742516e-06 -1.1149504e-05)
(2.7971181e-06 3.4427886e-06 -2.0726283e-06)
(6.467534e-06 4.3407494e-06 -2.2027806e-06)
(-3.8326628e-06 7.3156411e-07 -2.6887481e-06)
(-4.7786667e-06 6.2124149e-07 -1.896926e-06)
(6.2459761e-05 1.09089e-05 2.8790718e-05)
(1.524931e-06 4.2103319e-06 -1.0381095e-06)
(3.531523e-06 -5.2799215e-06 -3.281047e-07)
(-5.5798213e-06 -1.2510274e-07 -3.4434645e-06)
(9.4516658e-06 6.7695233e-06 -2.4191885e-06)
(-5.368898e-06 3.7934249e-07 -3.167191e-06)
(6.7790733e-05 -1.3561738e-05 1.8284543e-05)
(-4.6591893e-06 -6.1611614e-07 -2.4578633e-06)
(-3.2704372e-06 -1.3748141e-06 -1.2799505e-06)
(-5.5405484e-06 4.4324302e-07 -2.1875511e-06)
(6.0894565e-05 -3.7056346e-06 3.7057617e-05)
(-3.7709304e-06 1.0711539e-06 -1.9318695e-06)
(6.3711054e-05 3.4906466e-06 3.6244479e-05)
(5.213703e-06 4.9482938e-06 -1.6944414e-06)
(-5.6185519e-06 9.3366647e-08 -3.4249357e-06)
(-4.3209603e-06 4.05126e-07 -3.3003277e-06)
(6.6575199e-06 -5.7081041e-06 -2.2898275e-06)
(-5.4764932e-06 4.8169322e-07 -2.1696121e-06)
(9.2478719e-06 5.0505152e-06 -3.0076131e-06)
(-4.7474049e-06 9.3817296e-07 -2.0579102e-06)
(1.0060733e-05 8.6579134e-06 -2.1325456e-06)
(6.1186418e-05 1.1419982e-05 2.708516e-05)
(1.1263621e-05 1.0525694e-05 -1.6947151e-06)
(-2.6034494e-06 -1.5868329e-06 -2.1369931e-06)
(-3.2889928e-06 -8.1164959e-07 -2.3585071e-06)
(-6.0820507e-06 -1.6781474e-07 -2.9733182e-06)
(-4.3794769e-06 4.0852788e-07 -2.671873e-06)
(-5.8036646e-06 -1.2964976e-07 -3.8055466e-06)
(-5.2963081e-06 7.8724188e-07 -1.662076e-06)
(-1.32445e-06 -2.8439436e-06 -1.0977049e-06)
(-6.8878259e-06 -8.1465168e-08 -2.4572136e-06)
(3.0373335e-05 -4.4582851e-06 -8.4889592e-06)
(4.9287917e-05 -7.0783189e-06 -6.6191732e-06)
(5.8537715e-05 4.3757165e-06 -9.3261643e-06)
(-4.1577045e-06 2.745287e-07 -2.5494435e-06)
(4.281176e-05 -4.9530046e-06 -1.3809771e-05)
(4.6184587e-05 6.2629991e-06 -1.6318328e-05)
(1.568197e-05 9.7584456e-06 -4.0306664e-06)
(-3.1816203e-06 -1.1639135e-06 -1.7605951e-06)
(2.519508e-05 -1.4150509e-05 -6.3645693e-06)
(1.5358521e-06 -4.3336816e-06 -3.9493955e-07)
(3.3478946e-05 6.3577566e-06 -1.1334033e-05)
(-6.1234282e-06 -4.8038975e-07 -3.1348008e-06)
(7.2594606e-05 -1.0018163e-05 2.389328e-05)
(-4.9726105e-06 3.1079665e-07 -2.4670637e-06)
(1.6474994e-05 6.8660276e-06 -4.6625986e-06)
(2.6172816e-05 7.2096284e-06 -6.7330609e-06)
(-4.5868183e-06 -2.2428483e-07 -2.431364e-06)
(-4.1043797e-07 3.6366121e-06 -9.4417626e-07)
(-3.3779906e-06 8.8646746e-07 -2.0012251e-06)
(1.9639521e-06 -3.587864e-06 -1.4688615e-06)
(1.9672505e-05 7.2638038e-06 -4.5342103e-06)
(2.1719884e-05 9.0549437e-06 -6.2072846e-06)
(-5.7785769e-06 5.4711084e-08 -3.6661722e-06)
(3.5331154e-07 -3.6321929e-06 -7.2951935e-07)
(5.5624654e-05 6.5568532e-07 -1.0820622e-05)
(-2.1575808e-06 1.8659101e-06 -8.9910265e-07)
(6.3404192e-05 -1.2515721e-05 1.5684022e-05)
(-2.9093899e-06 1.2333277e-06 -1.8550586e-06)
(-3.8011168e-06 -6.7634071e-07 -2.1712636e-06)
(2.2645985e-06 3.6413634e-06 -1.6888848e-06)
(-4.848465e-06 1.563647e-07 -2.5926025e-06)
(5.8100369e-05 -1.3604777e-05 1.9049973e-05)
(6.6762506e-05 -1.9586078e-06 -1.2836575e-05)
(-2.957224e-06 1.3644201e-06 -1.9284221e-06)
(-3.2051984e-06 -5.3504176e-07 -1.9900912e-06)
(-3.6454239e-06 8.0933881e-07 -1.8588905e-06)
(-5.2649779e-06 -2.5633895e-07 -3.1884327e-06)
(-5.0394903e-06 -7.6331473e-08 -3.1194577e-06)
(-5.6156349e-06 -2.3702293e-07 -3.054421e-06)
(6.9330608e-05 6.6506195e-06 3.9148568e-05)
(-4.5258621e-06 5.3131486e-07 -2.5122263e-06)
(6.9912863e-05 -6.5907344e-06 3.7009832e-05)
(-5.6550581e-06 -3.2072674e-07 -3.0460638e-06)
(3.902227e-05 -3.8248285e-06 -1.0627154e-05)
(-5.0230893e-06 2.7633037e-07 -2.9116885e-06)
(-3.7776536e-06 6.5197348e-07 -2.294007e-06)
(6.7598948e-05 8.451024e-06 3.690459e-05)
(1.4754534e-05 9.4505861e-06 -3.415845e-06)
(4.2866666e-05 -3.2161492e-06 -9.5092009e-06)
(7.7152159e-06 -7.3260164e-06 -1.6425889e-06)
(-5.31909e-06 1.9718088e-07 -2.9880427e-06)
(-4.4071459e-06 2.9408725e-07 -2.1855829e-06)
(-4.7121962e-06 3.5123169e-08 -4.4150886e-06)
(2.9097432e-05 -1.072683e-05 -7.667723e-06)
(1.6893524e-05 6.7657884e-06 -4.8342834e-06)
(-6.054226e-06 -1.1577963e-07 -2.8739017e-06)
(4.2709724e-06 -5.9876674e-06 -1.5312509e-06)
(-5.7393929e-06 -2.2448653e-07 -3.2368865e-06)
(1.2214817e-06 4.2531385e-06 -1.2632932e-06)
(3.8992506e-05 5.0871096e-06 -1.1179212e-05)
(-1.2842133e-06 -1.9744942e-06 -1.7484335e-06)
(1.0419506e-05 -7.6382765e-06 -3.3344737e-06)
(-2.3776078e-06 1.3960053e-06 -1.9360293e-06)
(-3.4737884e-07 2.3465913e-06 -1.4415693e-06)
(4.3061698e-05 5.4317481e-06 -1.2009224e-05)
(1.9538237e-05 1.020523e-05 -3.0046331e-06)
(6.9428854e-05 -8.2680579e-06 3.965093e-05)
(-5.2029867e-06 -6.7820813e-08 -2.7381328e-06)
(-5.4961649e-06 -3.5903149e-07 -2.3903052e-06)
(5.3600676e-06 -6.0214729e-06 -8.3985878e-07)
(5.1489679e-05 5.2228674e-06 -1.0547768e-05)
(-2.2857949e-06 -1.2904116e-06 -1.7781615e-06)
(5.4875968e-05 9.3432107e-06 9.9417631e-06)
(4.7289952e-05 4.4342742e-06 -3.9951006e-06)
(5.0134581e-05 -5.8629385e-07 -9.469255e-06)
(-3.8416805e-06 -6.2395307e-07 -1.9153807e-06)
(-3.2339699e-06 -5.181466e-07 -2.1460709e-06)
(5.2326874e-05 1.9023003e-06 -1.8038117e-05)
(-4.3153077e-06 8.1160418e-08 -3.6346018e-06)
(4.8063989e-05 -1.5005087e-07 -1.6364722e-05)
(5.8494659e-05 -6.4133806e-06 -6.0328564e-06)
(6.2528157e-05 -8.6637469e-06 -1.3435592e-05)
(-3.4088559e-06 -6.7389547e-07 -2.3912179e-06)
(-3.8792372e-06 -1.0856073e-06 -1.4451752e-06)
(-3.8659894e-06 -1.0625219e-06 -1.4625985e-06)
(-2.2417748e-06 -1.471294e-06 -1.9076557e-06)
(4.9348549e-05 1.694835e-06 -8.6461993e-06)
(6.220042e-05 -7.4417034e-06 5.1282795e-06)
(6.1570928e-05 -1.0775243e-05 7.2420324e-06)
(6.5041667e-05 1.2676632e-05 8.7634566e-06)
(4.2447173e-06 -3.8416309e-06 -1.7636302e-06)
(6.7736693e-05 3.6346385e-06 7.405863e-06)
(3.3587223e-05 2.8787651e-07 -1.4601646e-05)
(3.1369338e-06 -5.2407417e-06 -8.4899839e-08)
(3.4425841e-05 -2.396335e-07 -1.5378663e-05)
(6.2687062e-06 -5.5754373e-06 -1.742859e-06)
(3.0887221e-06 -4.2645367e-06 -1.2507152e-06)
(6.7754586e-06 -8.8717479e-06 -8.1425618e-07)
(7.1420128e-07 -3.7619972e-06 -6.0914249e-07)
(2.6104708e-06 -5.675263e-06 -6.8357084e-07)
(5.3783101e-06 -4.7483266e-06 -3.1860745e-06)
(4.4144003e-07 -3.3945422e-06 -1.4412186e-06)
(-1.2392428e-07 -2.5200018e-06 -1.6365613e-06)
(2.7333108e-06 -3.4361028e-06 -2.1692467e-06)
(8.6257251e-06 -7.6816547e-06 -2.9643831e-06)
(-2.1114592e-06 -1.0029374e-06 -1.6929712e-06)
(-1.579927e-06 -2.4316829e-06 -9.8833895e-07)
(4.9973334e-06 -6.3422748e-06 -1.7315488e-06)
(6.6265213e-06 -6.3649714e-06 -1.8686819e-06)
(1.0377669e-05 -6.5139151e-06 -3.6299359e-06)
(9.8037229e-06 -6.7880871e-06 -3.677333e-06)
(5.7680051e-05 8.7903931e-06 3.1467881e-05)
(3.3826322e-05 -8.7437844e-06 -9.9771072e-06)
(-8.5015341e-07 -2.555873e-06 -2.0330038e-06)
(3.8517945e-05 -7.8905082e-06 -8.7804996e-06)
(1.3579509e-05 -8.9486702e-06 -3.6724484e-06)
(6.9241912e-05 -1.014126e-05 3.4077103e-05)
(-1.6802951e-06 -1.5311528e-06 -1.4534993e-06)
(5.4854011e-05 9.0692104e-06 3.1925812e-06)
(1.4070974e-05 -1.0474039e-05 -3.1347756e-06)
(3.6184428e-05 -5.5095851e-06 -9.4971257e-06)
(5.6599648e-05 9.1725258e-06 -8.3440166e-06)
(3.2987968e-05 8.0642139e-06 -1.0028741e-05)
(-2.1713581e-06 -1.4853062e-06 -1.6772074e-06)
(2.1501884e-05 -9.4269045e-06 -6.4355322e-06)
(-9.2930683e-07 -2.1564777e-06 -1.8638232e-06)
(1.9915082e-05 -1.0868165e-05 -5.0744565e-06)
(4.0083924e-07 -3.4082521e-06 -1.5764881e-06)
(5.6027069e-05 -7.2421139e-06 -7.4594038e-06)
(3.8680813e-05 9.1102778e-06 -8.6946344e-06)
(2.6102488e-06 -4.6082336e-06 -1.7718929e-06)
(4.4799515e-05 -5.5544089e-06 -7.1605697e-06)
(3.5202729e-05 5.7917813e-06 -8.9153932e-06)
(-1.460082e-06 -2.3377825e-06 -2.0750794e-06)
(-7.4057876e-07 -2.9249202e-06 -1.347805e-06)
(-1.0519675e-06 -1.6790209e-06 -1.7914948e-06)
(-1.2580471e-06 -2.6834827e-06 -1.1414832e-06)
(5.5632901e-05 5.928182e-06 -9.0436772e-06)
(5.9392115e-06 -4.0646579e-06 -3.2640794e-06)
(4.6840036e-05 9.1295679e-07 -1.0037422e-05)
(4.7515576e-05 1.3645705e-06 -8.2497891e-06)
(4.4287223e-05 1.0219507e-06 -9.9331844e-06)
(8.4507576e-07 -4.5495508e-06 -8.2502549e-07)
(-1.7202015e-06 -1.9864725e-06 -1.6986887e-06)
(3.1964114e-07 -2.5408099e-06 -1.8072555e-06)
(1.3306686e-05 -9.3817148e-06 -2.908938e-06)
(6.5062105e-05 -1.0342146e-05 1.1083969e-05)
(-1.5196087e-06 -2.456062e-06 -9.7142167e-07)
(1.1448391e-05 8.8375831e-06 -1.2655428e-06)
(5.7764226e-07 -3.0212902e-06 -1.6254163e-06)
(1.4945358e-05 -7.5005034e-06 -3.9156491e-06)
(3.2993847e-05 1.6085205e-07 -1.3413136e-05)
(5.7434899e-05 -2.5317919e-06 -1.0000851e-05)
(-9.4795445e-08 -1.7782616e-06 -1.6184864e-06)
(1.7867741e-05 -7.6213224e-06 -4.8945849e-06)
(2.541067e-05 9.0905955e-06 -4.8956972e-06)
(-1.399152e-06 -1.518079e-06 -8.1685477e-07)
(3.3360432e-05 1.1870852e-07 -1.4277075e-05)
(5.5226551e-05 -5.7434017e-06 -1.0073891e-05)
(4.7177258e-05 -3.3064503e-06 -8.753488e-06)
(4.0645956e-06 -5.4603137e-06 -1.388551e-06)
(5.150316e-07 -3.3149791e-06 -6.9906521e-07)
(1.5196525e-06 -3.8604912e-06 -1.3996237e-06)
(4.6626402e-05 4.9475112e-06 -4.6860368e-06)
(1.3434826e-06 -3.8532405e-06 -1.1780074e-06)
(1.6758337e-06 -4.7606385e-06 -5.2753984e-07)
(3.0114561e-05 1.1808078e-05 -5.7779036e-06)
(6.0074541e-05 -4.3152008e-06 -6.9733042e-06)
(4.3824724e-06 -5.2784823e-06 -1.9320682e-06)
(-2.9052457e-07 -2.866769e-06 -3.6134895e-08)
(-3.140335e-06 9.0918074e-07 -1.685401e-06)
(2.240407e-06 -5.6014077e-06 -7.3752835e-07)
(1.2233558e-06 -3.7363358e-06 -9.6959917e-07)
(4.4443107e-06 -4.3555606e-06 -1.2637567e-06)
(4.2966211e-06 -7.9013049e-06 -8.6832262e-07)
(1.5943981e-05 8.9439789e-06 -2.5018198e-06)
(6.322623e-05 1.2360474e-05 2.4950286e-05)
(6.2650753e-05 -1.2365859e-05 2.090704e-05)
(-1.2738092e-06 -1.8873607e-06 -4.9455935e-07)
(1.9429249e-05 1.2259344e-05 -2.5838638e-06)
(4.0034985e-06 -4.5655407e-06 -1.4549598e-06)
(3.1087968e-07 -3.9463874e-06 -3.579359e-07)
(1.9150392e-06 -5.5244489e-06 -3.4942644e-07)
(5.5196532e-07 -2.3295703e-06 -1.3371962e-06)
(3.3662526e-06 -4.0869306e-06 -1.577178e-06)
(5.5433687e-05 -8.2272635e-06 2.4187394e-06)
(1.9254516e-06 -4.0946306e-06 -5.6588095e-07)
(3.2064356e-05 -1.313766e-05 -6.9283454e-06)
(5.91357e-05 7.1969116e-06 1.1506009e-06)
(8.4676615e-06 -7.4082179e-06 -1.9426506e-06)
(7.255218e-05 1.3134369e-05 2.3261944e-05)
(-2.2437648e-06 -1.0384067e-06 -1.8474288e-06)
(-5.009001e-06 3.7660646e-07 -2.4610423e-06)
(-2.9301146e-06 -1.1600528e-06 -1.4208828e-06)
(-4.7525719e-06 -1.7171782e-07 -3.4380757e-06)
(-3.5854599e-06 6.9240324e-07 -2.2571285e-06)
(7.1257176e-06 -7.1427811e-06 -1.2150459e-06)
(2.8576768e-05 7.9184505e-06 -5.7319434e-06)
(2.1124691e-06 -2.8598318e-06 -1.4909741e-06)
(1.2182649e-05 -8.6181623e-06 -1.9926719e-06)
(-5.0646887e-06 -1.4182675e-07 -2.2341434e-06)
(2.1623586e-05 -8.0053722e-06 -5.4001207e-06)