/*--------------------------------*- C++ -*----------------------------------*\
  =========                 |
  \\      /  F ield         | OpenFOAM: The Open Source CFD Toolbox
   \\    /   O peration     | Website:  https://openfoam.org
    \\  /    A nd           | Version:  11
     \\/     M anipulation  |
\*---------------------------------------------------------------------------*/
FoamFile
{
    format      ascii;
    class       volVectorField;
    location    "10000";
    object      wallShearStress;
}
// * * * * * * * * * * * * * * * * * * * * * * * * * * * * * * * * * * * * * //

dimensions      [0 2 -2 0 0 0 0];

internalField   uniform (0 0 0);

boundaryField
{
    wall-fluid_domain
    {
        type            calculated;
        value           nonuniform List<vector> 
33501
(
(0.00019383605 4.0671195e-05 0.00028559472)
(0.00011002694 4.1204615e-07 0.00014432192)
(0.00014416735 3.6182775e-06 0.00023719252)
(-1.9362409e-05 1.0879367e-05 2.8580502e-05)
(4.1942447e-05 5.3422656e-07 9.079708e-05)
(0.00010641866 -2.4808942e-06 0.00015531062)
(9.7571117e-05 -7.400577e-06 0.00015190211)
(9.6785103e-05 8.9275482e-06 0.00015507479)
(0.00012407511 -2.5457601e-05 0.00018132243)
(1.3661759e-05 1.3812616e-05 6.220981e-06)
(0.00010250953 -1.4543584e-05 0.00014091848)
(0.00013904749 1.0336351e-05 0.00020880611)
(0.0001561689 -3.0911199e-05 0.00024700877)
(0.00012674265 1.147877e-05 0.00020254828)
(-1.3397533e-05 1.6398723e-05 1.9727879e-05)
(0.00013576678 3.2895713e-05 0.00018631815)
(0.00020110828 3.737492e-05 0.00026397019)
(0.00018522906 3.4632118e-05 0.00024434668)
(9.9032357e-05 -2.6848177e-06 0.00015490837)
(-7.6268737e-06 1.7864411e-05 1.4739087e-05)
(0.00016782644 3.6252073e-05 0.00021615605)
(0.00010060742 -3.4838556e-06 0.0001364163)
(0.00013336571 -4.4275879e-06 0.00022818924)
(0.00011738502 -5.1633064e-06 0.00017353464)
(0.00019702122 3.9766529e-05 0.00026186119)
(0.000196151 4.0596659e-05 0.00027710018)
(0.00010450755 -2.3658528e-06 0.00014252296)
(0.0001396163 -3.8278432e-06 0.00020529139)
(2.7703548e-05 1.6956093e-05 2.5314327e-05)
(0.00013828183 -5.3782608e-06 0.00021518256)
(0.00010327576 -6.8602112e-06 0.00014804067)
(0.00016724708 3.5192969e-05 0.00024776301)
(0.00011172012 -1.3530947e-06 0.00018842855)
(0.00017533774 3.42225e-05 0.00024233734)
(0.00017046033 3.7841422e-05 0.00025930547)
(0.00019101949 3.3677039e-05 0.00029044935)
(0.00017232553 3.809312e-05 0.00025001925)
(3.3411125e-05 1.1652155e-05 3.4586452e-05)
(-1.0755482e-05 -1.4562787e-05 -7.7594914e-06)
(0.00018161643 2.088605e-05 0.00030508167)
(-9.982788e-06 -8.2283229e-06 2.7641681e-05)
(0.00011487024 -6.6846968e-06 0.00016931534)
(0.00017832009 1.5431411e-05 0.00030665412)
(0.00017119675 -2.9198167e-05 0.00029071016)
(0.0001772474 -2.4709322e-05 0.0003014285)
(0.00014155861 6.4906548e-06 0.00021404674)
(0.00013337627 -5.0666966e-06 0.00020142961)
(8.5494783e-05 -1.9171173e-06 0.00013679572)
(0.00010800093 1.0416846e-06 0.0001450034)
(0.00018889511 3.4719644e-05 0.00029988431)
(0.00010321093 -3.9901202e-06 0.00013771956)
(0.00019405176 2.7608738e-05 0.00030295534)
(0.00013514532 3.4162605e-06 0.00023078099)
(0.00020019777 9.1302067e-06 0.00036186662)
(0.00012261867 -5.7409392e-06 0.00017969717)
(0.00010367541 -6.5699689e-06 0.00015053708)
(0.00011112705 -7.0281888e-06 0.00016000054)
(0.0001829066 4.3836682e-05 0.00023431695)
(0.00014667696 3.1959164e-05 0.00019568306)
(6.0141905e-06 1.3601644e-05 9.2630253e-06)
(0.00014120306 6.6625419e-06 0.00023105167)
(-3.9930249e-07 1.4348852e-05 9.4165895e-06)
(0.00013623735 -7.5046861e-06 0.00020701955)
(0.0001276363 -1.1469051e-05 0.00019390622)
(-1.4151152e-05 1.4302092e-05 2.1972041e-05)
(8.1934131e-05 -7.0128557e-06 0.00013580843)
(0.00018140156 -3.2893042e-05 0.00030008112)
(0.00017006371 3.5126833e-05 0.00023503682)
(0.00013667839 -1.1418917e-05 0.00021308425)
(0.00013164536 -5.6323514e-06 0.00022543524)
(0.00012753083 -6.6420658e-06 0.00018444562)
(4.719833e-05 1.1045421e-05 4.1025481e-05)
(0.00014117562 -3.95784e-05 0.00021874296)
(0.00020096998 3.8605855e-05 0.00029533138)
(0.00018116472 -2.0724457e-05 0.00030566429)
(0.00012723074 -6.3494455e-06 0.00018362648)
(0.00014884194 2.6759836e-05 0.00020981861)
(0.00019476027 1.9077041e-06 0.00034557482)
(0.00018360786 -1.8885843e-05 0.00030295826)
(0.00014681766 3.1368104e-05 0.00018759544)
(0.00021208276 4.1089284e-05 0.00027129462)
(-1.7830607e-05 9.1841351e-06 3.1476354e-05)
(-1.9546171e-05 9.8434731e-06 2.6056527e-05)
(-1.5797753e-05 4.3781628e-06 4.0312116e-05)
(0.00013265579 -4.6779764e-06 0.00019271584)
(0.00017809455 3.0137735e-05 0.0002750292)
(0.00012905936 -8.6791616e-06 0.00019201504)
(3.5760718e-05 3.6886402e-06 0.00011157724)
(5.6305871e-05 7.8758367e-06 5.8769873e-05)
(3.5311174e-06 1.6598508e-05 8.7031623e-06)
(0.00011747595 -6.3190493e-06 0.00017721853)
(1.0673626e-05 1.7548457e-05 1.3393368e-05)
(0.00011502252 -8.4237308e-06 0.00017865878)
(7.2625397e-05 7.1698093e-06 0.00012205405)
(0.00020135051 3.5601769e-05 0.00026826875)
(0.00023095155 3.6919119e-05 0.0003208585)
(0.00020725295 3.6930478e-05 0.00030783134)
(0.0001949939 2.8541332e-05 0.00032424807)
(0.00014632867 3.0312611e-05 0.00020603109)
(0.00012645352 -9.806644e-06 0.00019813767)
(0.00013507358 -4.2430826e-06 0.0002295436)
(-5.8560832e-06 1.8958606e-05 1.4092e-05)
(-2.0115963e-05 1.4952276e-05 2.8590944e-05)
(0.00021370572 4.2922608e-05 0.00026996515)
(7.4316085e-05 2.3781531e-06 0.00012205276)
(0.00014773807 -5.0227169e-06 0.00023977451)
(0.000139603 -4.1296807e-06 0.00022829249)
(0.00014299648 -3.5736048e-06 0.00023033401)
(0.00019917331 4.3816333e-05 0.00026247478)
(0.00022524582 3.8904607e-05 0.00031808329)
(0.00020386819 3.8117101e-05 0.00025412267)
(0.0002075077 4.2409535e-05 0.00029023312)
(0.0002124834 3.8562131e-05 0.00028688928)
(0.00012463711 -8.6200955e-06 0.00020228569)
(0.00020643969 3.5925023e-05 0.00030553112)
(0.00018167477 3.0871162e-05 0.0002624925)
(0.000137435 -5.9526866e-06 0.00022333432)
(-1.7597944e-05 -1.7077627e-05 4.3960933e-06)
(0.00014016819 1.0869456e-06 0.00023617773)
(-1.8151076e-06 1.810114e-05 1.4436162e-05)
(6.6472765e-05 2.1268776e-06 0.00012663446)
(0.00016614707 3.3471889e-05 0.00022497949)
(0.0001659589 3.2651179e-05 0.00021748397)
(0.00016884865 -4.6503745e-06 0.00028591182)
(0.00019916811 3.7746226e-05 0.00027378483)
(0.00014013722 -2.3635825e-06 0.00023126183)
(0.00018022352 3.1314267e-05 0.00026053927)
(1.2881514e-06 1.6928332e-05 1.1852435e-05)
(0.00017742401 3.0662817e-05 0.00023487402)
(-1.1429116e-05 1.7581298e-05 1.5638172e-05)
(0.00021068304 3.6342802e-05 0.00027990778)
(0.00019271486 3.9315372e-05 0.00027783389)
(4.8106673e-05 6.5070917e-07 9.2405645e-05)
(6.9155119e-05 1.5691246e-07 0.00011058864)
(0.00019688694 3.5552796e-05 0.00030623078)
(-1.3229782e-05 9.7203126e-06 2.1592405e-05)
(-1.9265808e-05 7.5116095e-07 -3.4242767e-05)
(0.00020780521 3.921677e-05 0.00027449659)
(0.00017688844 3.5857986e-05 0.00023035733)
(3.028866e-05 1.0196102e-05 2.6966372e-05)
(0.0001760182 3.3950693e-05 0.0002691323)
(0.00016641432 3.1097073e-05 0.00023555498)
(0.00020018717 4.2149128e-05 0.00027488815)
(1.1499856e-05 1.4903367e-05 1.0060312e-05)
(0.00011222846 -8.975765e-07 0.00019517843)
(0.00017526062 3.0243992e-05 0.00026792378)
(0.00016117308 3.3892687e-05 0.00023778367)
(0.00011761907 9.0260503e-06 0.00018466178)
(0.00017675894 3.0909949e-05 0.00026081963)
(0.00013210894 1.0172577e-05 0.00020576719)
(0.00015714686 -2.5756983e-05 0.00025979426)
(2.5090433e-05 1.6841662e-05 1.673296e-05)
(0.00015482214 -2.743754e-05 0.00026076509)
(0.00018412461 3.0438599e-05 0.00029309671)
(0.00013787757 -5.2850867e-06 0.00022636344)
(2.6941496e-05 2.2900269e-05 3.0870756e-05)
(0.00012961892 3.9862401e-06 0.00022601896)
(0.00017696738 3.56628e-05 0.0002243834)
(-6.4896624e-07 1.7480622e-05 9.8783424e-06)
(0.00013903917 1.2219444e-05 0.00022446752)
(1.9233026e-06 1.6506594e-05 5.5092299e-06)
(1.0107823e-05 1.9449384e-05 1.5938614e-05)
(0.00017847868 1.98499e-05 0.0003117048)
(0.00018337948 3.2306213e-05 0.00022492849)
(0.0001423361 1.7539023e-06 0.0002368659)
(0.00017866106 -2.2300297e-05 0.00029637248)
(-4.4252171e-06 1.7046405e-05 1.1664834e-05)
(0.00014104973 -7.3232973e-06 0.00022451326)
(6.9631323e-06 2.0440356e-05 1.0209464e-05)
(0.00014423429 5.9220842e-06 0.00023331591)
(-8.7698891e-06 -1.6633707e-05 -2.0695164e-05)
(-1.1368091e-05 -1.9856191e-05 -2.486737e-05)
(0.00020628156 1.7501253e-05 0.00036480599)
(1.2968035e-05 1.8039542e-05 1.2754248e-05)
(0.00017607323 3.2516896e-05 0.00026729866)
(0.00019561152 3.0874101e-05 0.00032094433)
(-7.7921378e-06 -1.8430642e-05 -1.2417753e-05)
(0.00019427473 3.0970223e-05 0.00030073004)
(0.00012375023 7.2501887e-06 0.00018778841)
(-9.4440166e-06 -1.7668456e-05 -1.585281e-05)
(1.2594895e-05 1.4560873e-05 1.0383478e-05)
(1.4620125e-05 1.7223898e-05 7.9902363e-06)
(0.00013571315 3.101055e-06 0.00022614025)
(5.1974892e-06 1.2517195e-05 2.8643296e-06)
(9.1880986e-06 1.6241679e-05 6.7647284e-06)
(0.00010200591 -9.2991081e-06 0.00013508283)
(0.00014521674 -3.4696204e-05 0.00020208146)
(0.00012015088 2.8794459e-05 0.00017830547)
(0.00019122119 9.515396e-06 0.0003373338)
(2.3358696e-05 1.890914e-05 2.1619598e-05)
(0.00017978172 -2.3663908e-05 0.00030672399)
(-9.3807756e-06 1.6184136e-05 1.2591175e-05)
(0.00011392734 -5.4925023e-07 0.00019356633)
(2.4100945e-05 5.3827121e-06 8.4575271e-05)
(0.00014305642 -3.0290784e-06 0.00022689644)
(0.00013549957 5.3744538e-06 0.00022637059)
(0.00012143903 1.1409308e-05 0.00020218621)
(2.6514565e-05 3.0857276e-06 8.6548255e-05)
(0.00015200502 9.3545813e-06 0.00023969338)
(0.00011648754 8.2214041e-06 0.00018611587)
(0.00016192447 6.2148958e-06 0.00024512477)
(0.00017534308 3.2119347e-05 0.00028157762)
(0.00012788969 7.7847135e-06 0.00021037647)
(0.00012976091 5.1361442e-06 0.0002249857)
(0.00012276649 1.0808377e-06 0.00021086898)
(0.00013199449 2.3055982e-07 0.00021992205)
(0.00012617693 -7.4960882e-07 0.00021599756)
(0.00020818238 9.6843136e-07 0.00035808229)
(0.00013229365 -1.8839207e-06 0.00022065519)
(0.00012765433 2.1729857e-06 0.00021342124)
(0.00012832676 -2.5198501e-06 0.00021796075)
(0.00014234648 5.0048902e-06 0.00023998968)
(0.00013212561 4.9694798e-08 0.00022749388)
(0.00019804785 3.1750238e-05 0.00030728545)
(0.00015016557 4.3794903e-06 0.00024382867)
(-1.96786e-05 1.4873412e-05 2.3237817e-05)
(0.00014191855 6.2338113e-06 0.00023572155)
(-7.3812604e-06 -1.0979442e-05 -3.4945393e-05)
(0.00013090362 -3.1269156e-06 0.00022566176)
(0.00014468064 2.2936629e-06 0.00024926166)
(0.00019263891 3.0343909e-05 0.00032220291)
(0.00013224689 3.4598325e-06 0.00021628121)
(0.00013796883 -2.9319386e-07 0.00022988614)
(0.00014010102 6.6672234e-06 0.00024306475)
(0.00013757949 -1.8375829e-06 0.00023062497)
(-1.3380982e-05 1.5937297e-05 1.6829305e-05)
(0.00013084439 -6.5953246e-06 0.00022783022)
(0.00018674964 2.8744577e-05 0.0002961928)
(1.1798243e-05 1.254244e-05 7.5914054e-06)
(0.00014602012 2.059021e-06 0.00024749426)
(0.00013381912 1.2827875e-05 0.00021754516)
(0.00015716091 1.3391206e-06 0.0002546909)
(0.00013339404 4.1102261e-06 0.00021859273)
(-1.1161019e-05 4.6602533e-06 2.9293654e-05)
(5.7256558e-05 1.4147473e-05 6.6691568e-05)
(0.0001395949 -6.5574091e-06 0.00023042737)
(0.00013190221 4.3394955e-06 0.00021794786)
(1.3573658e-05 -1.123887e-06 7.3468408e-05)
(2.6413096e-05 2.4633296e-06 8.6716621e-05)
(0.00012469016 -9.8663798e-06 0.00019819915)
(0.00017638308 2.5338683e-05 0.00028049292)
(0.00020178268 3.1685147e-05 0.00031109548)
(-1.271704e-05 9.3236483e-06 2.8989028e-05)
(0.00012540286 -8.063047e-06 0.00018830653)
(0.00014830859 7.4616739e-07 0.00025751382)
(-1.5186101e-05 1.6995463e-05 1.7380422e-05)
(-1.4357347e-05 1.7964078e-05 1.5433447e-05)
(0.00020875636 -2.9095615e-05 0.00032902073)
(0.00020586338 -3.0562989e-05 0.00032507986)
(4.0117944e-05 1.5239755e-05 3.5071081e-05)
(0.00011965588 -8.5644385e-06 0.00020221262)
(-2.5476636e-06 1.589429e-05 7.8886502e-06)
(-3.9025594e-06 1.5009581e-05 8.3129485e-06)
(-1.5256374e-06 1.648299e-05 5.0735364e-06)
(0.00020142994 3.2473226e-05 0.00032211814)
(-1.4108686e-05 1.2649742e-05 1.8501559e-05)
(-4.0757431e-06 1.3703771e-05 5.6482331e-06)
(0.00017951861 2.6295233e-05 0.00029373398)
(7.0467859e-05 -5.657804e-06 0.00011245773)
(-9.7418483e-07 1.4926729e-05 9.7946944e-06)
(0.00018229837 2.5743865e-05 0.00029072609)
(4.1815043e-05 -1.2730353e-06 8.4616041e-05)
(0.00010950304 -6.2168301e-06 0.00014827229)
(-7.2906719e-06 1.7961681e-05 1.4373461e-05)
(0.00012947282 -3.8938909e-06 0.00020858688)
(-4.171788e-06 1.8349004e-05 1.208924e-05)
(3.8574379e-05 -9.7807654e-06 8.9531276e-05)
(0.00011674341 -6.3389061e-06 0.00016219709)
(5.7625591e-05 1.3424724e-05 5.5027237e-05)
(0.00012790482 -1.1485168e-05 0.00020885196)
(-5.0566412e-06 1.8534625e-05 1.1918256e-05)
(3.5583161e-05 1.710898e-05 3.3879533e-05)
(-1.0705523e-05 1.9198658e-05 1.6444851e-05)
(0.00013734527 1.1912401e-05 0.0002183227)
(-1.0860753e-05 2.108835e-05 1.268467e-05)
(3.5807355e-05 2.0442247e-05 3.0446253e-05)
(0.00014465766 1.9060613e-05 0.00024661027)
(0.00021319053 2.1345711e-05 0.00035657833)
(0.00021648442 2.0723993e-05 0.00036303889)
(0.00020934691 1.5543256e-05 0.00035576422)
(0.00012779955 1.0146509e-05 0.00021575478)
(1.2976046e-05 2.1943704e-05 1.3303265e-05)
(0.0002098582 1.223994e-05 0.00035786295)
(1.695956e-05 1.8576778e-05 1.2626471e-05)
(0.00021569318 2.0078911e-05 0.00035963223)
(0.00014428755 -6.6155236e-06 0.00024789472)
(0.00020357949 1.2316631e-05 0.0003545696)
(2.6958007e-05 1.8592399e-05 2.0322354e-05)
(0.00017406919 2.0328272e-05 0.00028609977)
(0.00016223134 3.5013585e-05 0.00020386741)
(0.00020908816 1.7937678e-05 0.00035175966)
(0.0001522081 -5.9138379e-06 0.00024881967)
(0.00020632767 5.0170861e-06 0.00035009699)
(0.00017419361 2.0270454e-05 0.00028955893)
(0.00020056749 3.1066403e-05 0.00030933688)
(0.0002050281 1.9261788e-05 0.00034662031)
(8.2170838e-06 1.9469871e-05 5.3158996e-06)
(0.00021169162 3.1290061e-05 0.00034101895)
(0.00010966108 -2.7627153e-06 0.00019822324)
(7.5797548e-06 1.7578479e-05 7.733289e-06)
(0.00021925903 2.1789142e-05 0.00036587615)
(0.00017415905 1.9311359e-05 0.0002882046)
(0.00012392876 -7.9891354e-06 0.0002021838)
(0.00019726745 2.9205101e-05 0.0003321417)
(0.00020997461 3.1265368e-05 0.00033735245)
(0.00018798596 2.3965772e-05 0.00030519146)
(0.00021312266 2.4470746e-05 0.0003606688)
(0.00020038492 5.1401349e-06 0.00034390339)
(0.00017889595 2.2868882e-05 0.00030161058)
(-1.7315823e-05 1.5563229e-05 1.9361604e-05)
(0.00019170941 1.8044148e-05 0.00034155511)
(-1.5854342e-05 1.0847572e-05 1.6649968e-05)
(0.00020148567 3.0403506e-06 0.00035490067)
(0.00017963979 2.7719817e-05 0.00029705168)
(0.0001786975 3.7859268e-05 0.00022004865)
(0.00018023222 2.2501394e-05 0.00029870282)
(0.00020257957 2.1500656e-05 0.00035474354)
(2.9523437e-05 -4.109761e-06 8.9281741e-05)
(0.00011492251 -8.2170315e-06 0.00018959196)
(0.00017787881 2.1332506e-05 0.00030658527)
(0.00019132088 1.3661625e-05 0.00032544952)
(0.00018365852 1.9281699e-05 0.00030463989)
(0.00018889258 8.1849408e-06 0.00032460006)
(0.00015765455 1.5315445e-05 0.00027419095)
(0.00012261275 -7.3986328e-06 0.00018872275)
(3.0242277e-05 1.3276185e-06 8.4135402e-05)
(0.0002030682 1.0467346e-06 0.00035061426)
(0.00018032576 5.3832859e-07 0.00032543118)
(0.00018124011 2.4829817e-05 0.00029610956)
(2.9025016e-05 3.8787984e-06 8.4117229e-05)
(0.00018405061 1.3299817e-05 0.00033171009)
(-7.6763134e-06 3.5068844e-06 1.9577271e-05)
(0.00017977497 2.2998698e-05 0.00030423295)
(0.00015706567 1.3328699e-05 0.00028076837)
(-7.6336195e-06 5.165384e-06 3.0083764e-05)
(0.00020749878 -9.2789417e-09 0.00034998461)
(0.00017075054 9.5078194e-06 0.00030330862)
(2.3071516e-06 1.6634776e-05 1.1000717e-05)
(-6.249117e-06 1.1782223e-05 6.1608043e-06)
(0.00017335544 3.5340321e-05 0.00021213404)
(-3.7724702e-06 7.7876358e-06 1.9282096e-05)
(0.00018500812 1.6520197e-05 0.00032081302)
(0.00013367891 1.0342451e-05 0.00020668435)
(-8.4679286e-07 1.3801405e-05 2.2231993e-06)
(0.00019370812 2.5425586e-05 0.00032035123)
(6.8207374e-06 1.1474183e-05 3.3445456e-06)
(-1.0106515e-05 6.5060055e-06 2.4433575e-05)
(0.00019443141 1.4777748e-05 0.00032582374)
(0.00020838843 2.9372852e-05 0.00032654832)
(-7.3910744e-06 1.5863222e-05 7.4372303e-06)
(0.0001468972 1.5262509e-05 0.00025503052)
(0.00015040555 1.2577276e-05 0.00025423964)
(0.00020165198 2.4818056e-05 0.00032268981)
(0.0001902778 3.1519211e-05 0.00022781835)
(0.00019907756 4.2155244e-05 0.00026017719)
(0.00020150493 9.3054632e-09 0.00034746833)
(0.00020586563 2.873004e-05 0.00032365733)
(0.00019744308 2.5385722e-05 0.00032026934)
(0.00012354009 9.1012053e-06 0.00019953315)
(0.00017029891 3.9229862e-05 0.00021855345)
(0.00017054181 6.9818147e-06 0.00031029042)
(0.00013661933 -4.8952115e-06 0.00022913782)
(0.00013536028 -5.3293335e-06 0.00022940366)
(0.00017951065 1.1190567e-05 0.00030457883)
(0.00018424653 1.4682096e-05 0.00032388357)
(0.00018696608 1.713527e-05 0.00030689986)
(0.00017925546 1.1924563e-05 0.00030323111)
(0.00017637465 2.1140861e-05 0.0002994636)
(-1.0534289e-05 1.3990162e-05 1.1336702e-05)
(0.00017560467 1.1081758e-05 0.00030025521)
(0.00013325174 5.5540804e-06 0.00023859246)
(0.00014931834 -8.8512194e-06 0.00025296743)
(0.00017844909 1.7588314e-05 0.00030444561)
(0.00019259627 3.8602613e-05 0.00023429078)
(0.00019730559 1.2445732e-05 0.00034139837)
(2.0739928e-05 2.1972881e-05 1.6058608e-05)
(0.00018357008 8.6490245e-06 0.00032492469)
(0.00021541585 1.1259513e-05 0.00036898922)
(0.00011818621 -9.1186987e-06 0.0001970345)
(2.977022e-05 2.1784961e-05 2.9332379e-05)
(-8.3045833e-06 1.503123e-05 8.066959e-06)
(1.5591978e-05 2.0594091e-05 1.3332094e-05)
(0.00019036671 3.1299605e-05 0.00028011638)
(0.00012643322 -7.4642141e-06 0.00020349917)
(-8.6926391e-06 -1.9068436e-05 -2.6109306e-05)
(1.3416993e-05 2.1791805e-05 9.647037e-06)
(3.7949721e-05 1.440731e-05 3.1294198e-05)
(0.00017562328 3.1088879e-05 0.0002129842)
(6.3926314e-06 1.6046377e-05 1.1866271e-06)
(3.3365731e-05 1.6146923e-05 2.5434875e-05)
(-1.2540961e-05 1.210143e-05 1.2474813e-05)
(-1.433009e-05 1.1662701e-05 1.2058764e-05)
(-1.1093359e-05 1.2652724e-05 1.0256771e-05)
(-8.5835223e-06 7.017634e-06 1.2539137e-05)
(-6.5421327e-06 9.4470645e-06 1.4264325e-05)
(-7.552209e-06 7.9881445e-06 9.7722507e-06)
(0.00024223794 3.1577977e-05 0.00028294956)
(-6.4969668e-06 8.7976908e-06 9.7274432e-06)
(0.00018233826 1.1989842e-06 0.00031532303)
(-1.3618252e-06 1.2117717e-06 1.565916e-05)
(3.6338315e-05 1.303689e-05 3.3560818e-05)
(2.3046384e-06 2.2910022e-06 1.4777298e-05)
(0.00014434427 8.8629892e-06 0.00024846814)
(-3.9977148e-06 4.3356439e-06 1.7973374e-05)
(0.00013189413 4.4627307e-06 0.00024234978)
(0.00010058678 -2.613804e-05 0.00019094339)
(0.00018387492 6.1681852e-06 0.00032313425)
(-4.1451301e-06 1.429188e-05 6.0413197e-06)
(0.00010714033 -6.4968961e-06 0.00017962852)
(0.00018070441 -4.077696e-06 0.00031312177)
(-4.4353411e-06 1.6697614e-05 6.374813e-06)
(0.00012115773 -4.0266978e-06 0.00019129047)
(0.0001796691 1.0961766e-06 0.00031013174)
(0.00014367049 -9.3992764e-06 0.00022978987)
(5.003903e-05 -9.6083679e-07 9.1131656e-05)
(0.00012704217 1.2123853e-05 0.00020483396)
(0.00012931702 8.5437896e-06 0.00021213972)
(4.5930511e-06 1.8042342e-05 9.3434371e-06)
(7.1437002e-06 1.8704992e-05 7.2268142e-06)
(6.0599907e-05 -1.9517249e-06 0.00010139771)
(0.00017868507 -3.8454606e-06 0.00030899906)
(9.8213403e-07 7.0882159e-06 2.8313123e-05)
(2.525171e-05 2.5526413e-06 7.3337331e-05)
(0.00019598158 2.2080844e-05 0.00032019214)
(0.000108474 -6.2449374e-06 0.0001810638)
(0.00017925188 3.4124939e-05 0.00028171964)
(6.8063614e-06 1.3978394e-05 6.2996581e-06)
(-6.8384689e-06 1.3308159e-05 9.7695733e-06)
(2.3536155e-05 2.6592577e-05 2.0205581e-05)
(-9.6109267e-06 1.3627818e-05 1.1354987e-05)
(3.5333807e-05 2.3360442e-05 2.875755e-05)
(2.5201093e-05 2.0429015e-05 1.9323893e-05)
(2.1679028e-05 2.0262708e-05 1.657915e-05)
(-4.2663119e-06 1.481257e-05 5.8397902e-06)
(0.00018646853 -3.9876652e-06 0.00031721153)
(2.612784e-05 2.2549076e-05 2.609942e-05)
(2.0624655e-05 2.5534667e-05 1.8006776e-05)
(1.4557502e-05 2.5337239e-05 1.9031455e-05)
(1.5947368e-05 1.962782e-05 7.2820015e-06)
(6.1908805e-06 2.2755484e-05 1.1704404e-05)
(7.6352058e-06 1.8153384e-05 4.6879452e-06)
(0.00012716342 -6.6804347e-06 0.000205127)
(-5.9603297e-06 -1.8025747e-05 -3.1413405e-05)
(0.00018062611 3.0717206e-05 0.00029136499)
(0.00017967915 2.6520119e-05 0.00028763705)
(-8.7095133e-06 -1.8335178e-05 -7.9930378e-06)
(-9.5429354e-06 5.8512228e-06 1.1018391e-05)
(3.6895379e-05 5.0142482e-06 8.3556477e-05)
(0.0001754103 2.8787924e-05 0.00020533121)
(3.6605342e-05 6.6748062e-06 8.0094145e-05)
(-5.5822179e-06 1.0014184e-05 4.5130242e-06)
(0.00014039693 2.9042826e-05 0.00017036769)
(3.4833518e-05 2.3724747e-05 3.7403808e-05)
(3.3236008e-05 3.4686639e-06 7.6471893e-05)
(4.0330548e-05 -3.0138276e-06 8.2502443e-05)
(-7.877711e-06 1.5812308e-05 8.4170455e-06)
(0.0001368303 1.124913e-05 0.00022318053)
(0.00018842296 3.3839705e-05 0.00022127627)
(0.00020447834 3.9925989e-05 0.0002421573)
(-3.2060229e-06 5.9383128e-06 1.2330501e-05)
(-7.824057e-09 6.9781659e-07 1.1855975e-05)
(0.00019300126 3.2962444e-05 0.00022452075)
(0.00014609848 9.424933e-06 0.00023217988)
(0.00014012601 1.0262508e-05 0.00022847521)
(4.0895071e-05 2.2017874e-05 3.6758433e-05)
(0.00011512607 -1.1291567e-05 0.00018254229)
(-4.6041205e-06 9.9073303e-06 2.6636617e-06)
(0.00020784757 3.8005704e-05 0.00024302757)
(-4.4914886e-06 1.3080458e-05 5.0637301e-06)
(4.1492492e-05 -2.6800054e-06 8.7203599e-05)
(3.238045e-05 3.1245576e-06 7.6048842e-05)
(4.4508361e-05 2.5799098e-05 4.6107072e-05)
(-5.7673237e-06 1.3048418e-05 8.0767954e-06)
(0.00015442491 -5.9797456e-06 0.0002411053)
(4.7784702e-06 1.6473681e-05 5.5382042e-06)
(0.00023511463 3.8414634e-05 0.00027606924)
(3.4856412e-05 1.2721529e-05 3.1631931e-05)
(3.7234436e-05 1.5317445e-05 3.5911386e-05)
(0.00019213937 2.8127748e-05 0.0002262624)
(3.6814092e-05 1.0355675e-05 3.2455157e-05)
(4.1573659e-06 1.1713946e-05 5.8028842e-06)
(0.00018715667 3.0255488e-05 0.00022446623)
(-7.9173042e-06 6.4057188e-06 6.0740624e-06)
(3.6540426e-05 1.2563403e-05 3.7174399e-05)
(5.0733018e-05 8.4617796e-06 4.309725e-05)
(1.6290612e-05 4.2208281e-06 6.4466823e-05)
(-7.8821146e-06 -2.869217e-06 -3.6333629e-05)
(0.00017169866 3.6823195e-05 0.00021069693)
(0.0001762443 2.7653844e-05 0.00027678461)
(0.00014068386 -1.0141438e-05 0.000235141)
(0.00018167338 3.0555473e-05 0.00028410471)
(-8.7404263e-06 7.0417107e-06 6.2209289e-06)
(3.5402204e-05 4.4034697e-06 6.7777786e-05)
(-4.8006478e-06 1.0949366e-05 5.3194656e-06)
(6.7893623e-06 2.121368e-05 8.053433e-06)
(-6.4625379e-06 9.7644158e-06 5.519329e-06)
(-8.3962774e-06 1.0096344e-05 6.5080275e-06)
(-3.3175148e-06 5.7406617e-06 2.0154901e-06)
(2.905608e-05 -1.6801694e-06 6.9554083e-05)
(-6.0058183e-06 1.3179058e-05 4.6119304e-06)
(-2.9259563e-06 1.1156335e-05 3.3872441e-07)
(-1.2111418e-07 5.202846e-06 3.4369631e-07)
(-4.9152225e-06 3.1701373e-06 2.6751502e-06)
(-7.9913113e-06 7.4020115e-06 7.4921551e-06)
(-1.4595737e-06 6.9299405e-06 -2.7962069e-08)
(-4.7810051e-06 1.04542e-05 1.664819e-06)
(-3.8158761e-06 2.4029885e-06 2.9969203e-06)
(-3.5726732e-06 4.558657e-06 2.1097994e-06)
(5.2045601e-05 2.5055382e-05 4.7845118e-05)
(6.6591934e-05 1.2514924e-05 0.00011282739)
(-5.5685285e-06 1.6291273e-06 -2.0437034e-05)
(6.0529914e-05 -5.1251668e-06 9.3178728e-05)
(4.6042542e-05 -7.1961374e-06 8.6492289e-05)
(3.83496e-05 -4.6037847e-06 7.547671e-05)
(5.4142048e-05 5.9989298e-06 9.7153655e-05)
(0.00016896007 2.8105025e-05 0.0001970168)
(0.00017831605 2.1576381e-05 0.00020468712)
(0.00017592679 2.6921424e-05 0.00020188085)
(0.00018526 2.438836e-05 0.00021482809)
(0.00018635113 2.3180517e-05 0.00020699735)
(0.0001817922 2.6363181e-05 0.00021237946)
(0.00019932265 2.3450993e-05 0.00022058511)
(0.00019175742 1.9600041e-05 0.00020942541)
(0.00017448084 2.4743491e-05 0.00019100702)
(0.00019303239 3.0912971e-05 0.00021955793)
(0.00019610411 2.6674134e-05 0.00021578836)
(0.00018836549 2.1893008e-05 0.00020714168)
(0.00018066479 1.9198764e-05 0.00019040007)
(0.00018329292 1.8970793e-05 0.00019186506)
(0.00018900035 2.2427052e-05 0.00020060902)
(0.00020190779 1.7468618e-05 0.00021220784)
(0.00019709644 1.243238e-05 0.00020466347)
(0.00018442959 2.4347458e-05 0.00021134575)
(0.00019486614 1.4836624e-05 0.00020151186)
(0.00017423834 1.9009555e-05 0.00018506423)
(0.00018735693 2.5269513e-05 0.00020745164)
(0.00013533351 2.5216998e-05 0.0001603404)
(0.00019454786 2.2642472e-05 0.00020845769)
(0.00017809273 2.4832036e-05 0.0001986384)
(0.00018735716 2.3316209e-05 0.00021687259)
(0.00018450244 2.8551244e-05 0.00020193725)
(0.00018127673 1.896586e-05 0.00019829353)
(0.00016872658 1.512964e-05 0.00018269274)
(0.00018213289 1.6370231e-05 0.0001890807)
(0.00018552713 1.2264372e-05 0.00019227107)
(0.0001759652 1.94644e-05 0.00019096953)
(0.00017376839 2.917565e-05 0.00019657466)
(0.00015305828 1.4020472e-05 0.00016105746)
(0.00018479637 1.0027729e-05 0.00019728003)
(0.00018550178 9.3918206e-06 0.00018794866)
(0.00014520951 3.9986862e-06 0.00015375654)
(0.00019472766 3.6185621e-05 0.00022484402)
(0.00017724698 7.327719e-06 0.00018101988)
(0.00017326091 1.9661217e-05 0.00018023416)
(0.00017946509 1.652823e-05 0.00019071701)
(0.00013823208 6.3941893e-06 0.00014756886)
(0.00018684309 1.8028057e-05 0.00020681793)
(0.00013701944 9.2379088e-06 0.00014418732)
(0.00017770783 2.2111527e-05 0.00018634012)
(0.00018513157 2.138008e-05 0.00020213478)
(0.00017547996 2.6349728e-05 0.0002020007)
(0.00017436833 2.4779824e-05 0.00019747132)
(0.00016030071 1.0685467e-05 0.00016859864)
(0.00017351533 1.3448389e-05 0.00018535174)
(0.0001821675 1.4951934e-05 0.00019248769)
(0.00017681013 2.3349031e-05 0.00019897801)
(0.00016539717 1.2960957e-05 0.00017941391)
(0.00017136092 2.1022185e-05 0.00018531683)
(0.00018329582 2.6537111e-05 0.00021371984)
(0.00017518568 2.3493386e-05 0.0001973103)
(0.00017216851 2.0713543e-05 0.00018152544)
(0.00017930239 3.5810307e-06 0.00018455457)
(0.00017765097 1.5092677e-05 0.0001806957)
(0.00017145298 2.9579603e-06 0.00017447187)
(0.00015888545 1.0392271e-05 0.00016525922)
(0.00015773571 5.0858281e-06 0.00016677314)
(0.00013521598 7.8330854e-06 0.00013990977)
(0.00015389106 1.6024016e-05 0.00015819107)
(0.00018780538 9.468546e-06 0.00019330745)
(0.00012900525 2.7606811e-06 0.00013233349)
(0.00016290112 6.9680055e-07 0.00017031676)
(0.00017278877 1.9904518e-05 0.00019254648)
(0.00016523848 1.5825025e-05 0.00017642889)
(0.00016241886 2.7296249e-05 0.00018872034)
(0.00015392286 4.864646e-06 0.00015670471)
(0.00015859636 3.0025098e-05 0.00018201571)
(0.00015446956 3.7234601e-06 0.00015940268)
(0.00015374688 3.1722106e-08 0.00015384219)
(0.00017628177 1.822082e-05 0.00019796477)
(-4.8871006e-06 -5.3483834e-06 -3.146802e-05)
(0.00015849216 -5.7586161e-06 0.00015761758)
(-5.241653e-06 -2.1779264e-05 -2.8818659e-05)
(0.00017781662 1.1947534e-05 0.00018104834)
(0.00017884232 2.0760934e-05 0.00020119919)
(-7.1071304e-06 -1.5334662e-05 -3.6475437e-05)
(0.00017468675 1.1695128e-05 0.00018496254)
(0.00018769229 3.886515e-05 0.00021758243)
(0.0001706415 1.4536987e-05 0.00017369576)
(0.00019073106 4.7071662e-05 0.00023618049)
(0.00018864286 1.8608657e-05 0.00020517039)
(0.00019514388 3.8931643e-05 0.00022573424)
(0.00012642687 7.4167179e-06 0.00013370465)
(0.00016236147 2.3905087e-05 0.00017834638)
(0.00014359777 5.9793045e-06 0.00014792859)
(0.00018040396 -1.1683858e-06 0.00018293125)
(0.00016239805 3.4594231e-06 0.00016591064)
(0.00017268713 1.6604695e-05 0.00017928508)
(0.00018591673 2.8042821e-05 0.0002062552)
(0.0001037713 2.7287794e-06 0.00015881724)
(0.00013210824 -6.0165402e-06 0.00013607036)
(0.00010253162 3.3984608e-06 0.00015775334)
(-7.1290463e-06 -1.9880973e-05 -2.3858821e-05)
(0.00016559946 3.5689673e-05 0.00020183633)
(0.00016536367 2.3294231e-05 0.00018043887)
(0.00015479611 -2.7670688e-06 0.00015776601)
(0.00015199164 -2.3124169e-06 0.0001506468)
(0.00016529891 5.7839262e-06 0.00017139444)
(0.00016490659 -8.3829963e-07 0.00016829011)
(0.00015367715 -7.9637619e-07 0.00015681937)
(0.00017233122 6.1134602e-06 0.00017663701)
(0.00012712967 -4.2733176e-06 0.0001293701)
(0.00015000333 1.0395004e-05 0.00015918069)
(1.8859301e-05 1.0329789e-05 5.6073239e-05)
(0.00016858359 4.1755467e-06 0.0001741164)
(0.00010792472 -8.085352e-06 0.00011343861)
(0.00011590422 -2.7016272e-06 0.00012134475)
(9.5761335e-05 5.2168462e-07 0.00014952306)
(0.00014859457 -3.8260651e-06 0.00014581062)
(0.00012383873 -7.591413e-06 0.00013137214)
(0.0001513313 1.6623742e-05 0.00016266182)
(0.00014763042 6.0060395e-06 0.00015471709)
(0.00014847192 1.6052842e-05 0.00015929055)
(0.00015952686 6.1670926e-06 0.00016090551)
(0.0001123955 -2.4945223e-06 0.00011571511)
(0.00013383388 -2.8366599e-07 0.00013552757)
(0.00012347056 -1.1768778e-05 0.00012922824)
(0.00012019913 -6.0924509e-06 0.00012533943)
(0.0001521372 2.5003113e-06 0.00015289671)
(0.00012085427 -7.9017394e-06 0.00012630681)
(0.00013295061 -6.8195564e-06 0.00013618463)
(0.00012312195 -6.0523728e-06 0.00012716403)
(0.00010692081 -5.0913632e-06 0.00010924911)
(0.00011561224 -9.1638174e-06 0.00012309877)
(0.00011705626 -1.1703151e-05 0.00012548288)
(0.00015515638 6.8139914e-06 0.00016641845)
(0.00011910641 -1.0707076e-05 0.00012436227)
(0.00012382466 -1.0073163e-05 0.0001248089)
(0.00013203146 -5.1959641e-06 0.00012931492)
(-1.1133704e-05 1.5902705e-06 -3.1350034e-05)
(0.00010799681 -9.4893841e-06 0.00011642624)
(0.00012343668 -1.4076389e-05 0.00013032231)
(0.00014410344 -2.2836278e-05 0.00020355589)
(0.00011239696 -1.3562586e-05 0.000121179)
(0.00011158985 -1.1987447e-05 0.00012231388)
(0.00010245612 -1.1443259e-05 0.00011095414)
(0.00012031331 -7.0461617e-06 0.00012847753)
(0.00010580895 -1.0394134e-05 0.00011647471)
(-9.8607255e-06 -1.9360707e-05 -1.1561439e-05)
(0.00010681156 -1.1401906e-05 0.00011357756)
(0.00012068848 -1.1347282e-05 0.00012469806)
(-1.0128459e-05 -2.2528852e-05 -2.3101327e-05)