/*--------------------------------*- C++ -*----------------------------------*\
  =========                 |
  \\      /  F ield         | OpenFOAM: The Open Source CFD Toolbox
   \\    /   O peration     | Website:  https://openfoam.org
    \\  /    A nd           | Version:  11
     \\/     M anipulation  |
\*---------------------------------------------------------------------------*/
FoamFile
{
    format      ascii;
    class       volVectorField;
    location    "10000";
    object      wallShearStress;
}
// * * * * * * * * * * * * * * * * * * * * * * * * * * * * * * * * * * * * * //

dimensions      [0 2 -2 0 0 0 0];

internalField   uniform (0 0 0);

boundaryField
{
    wall-fluid_domain
    {
        type            calculated;
        value           nonuniform List<vector> 
50990
(
(0.00028060006 -4.5762568e-05 6.719834e-06)
(0.00028447387 -5.736687e-05 9.8706996e-06)
(0.0001780029 -4.7702798e-05 2.3129904e-05)
(0.0002520878 -4.1503669e-06 2.3957214e-05)
(0.00030425372 -4.6380366e-05 1.4479434e-05)
(0.00033546463 1.0037528e-06 2.9680892e-05)
(0.00026815636 -4.918735e-05 6.1007888e-06)
(0.00025510937 -3.1103326e-05 7.709658e-06)
(0.00030086815 -1.0342151e-05 2.9328822e-05)
(0.00035247725 -2.9966117e-05 2.0863523e-05)
(0.00024667161 -3.3779241e-05 4.3115544e-06)
(0.0003365038 -3.2413211e-05 1.6352567e-05)
(0.00018318346 -5.4369178e-05 3.3108549e-05)
(0.00029451388 -5.5652141e-05 1.107505e-05)
(0.0004154954 -2.638249e-05 9.4670323e-05)
(0.00044821378 -5.9996958e-06 8.4442522e-05)
(0.00034601773 -1.7514774e-05 2.3821452e-05)
(0.00030279751 -4.8553302e-05 1.2732566e-05)
(0.00039248871 4.5435483e-06 7.6417058e-05)
(0.00035397671 8.0953628e-06 7.0493846e-05)
(0.0002421376 3.1890696e-05 2.1021479e-05)
(0.0003337927 4.8926152e-06 3.3011498e-05)
(0.00035697397 -1.6249328e-05 3.5150465e-05)
(0.00034856498 -1.0517608e-05 2.6100497e-05)
(0.00028596213 -5.7413626e-05 7.6717211e-06)
(0.00035696137 1.959705e-05 4.4625278e-05)
(0.00023731639 4.3228559e-05 3.0861603e-05)
(0.00032739732 7.1056034e-06 3.1954174e-05)
(0.0002865488 -8.151859e-05 2.7742227e-05)
(0.00025362358 5.5519134e-05 3.2121587e-05)
(0.00041033125 -1.5680036e-05 8.4494593e-05)
(0.00038406798 4.0950413e-05 7.7785808e-05)
(0.00035054497 6.6797948e-07 3.0912872e-05)
(0.00038546713 2.3440325e-05 5.1773711e-05)
(-4.8435576e-05 -1.9417308e-05 -2.1327387e-05)
(0.00038673326 3.3983922e-05 6.2629967e-05)
(0.00032553644 1.0664885e-05 3.3095646e-05)
(0.00044504577 -1.3359328e-05 8.0651545e-05)
(0.00033494972 1.6957342e-05 4.6819269e-05)
(0.00040546808 4.9785407e-05 9.5012441e-05)
(0.00037847015 -1.1055813e-06 7.516265e-05)
(0.00043147146 -4.0047243e-05 0.00010617054)
(0.00026513218 -8.7595789e-05 4.8358417e-05)
(0.00018808482 -5.9814978e-05 3.8510507e-05)
(0.00032802828 4.3676313e-05 7.7622336e-05)
(0.0004077695 -1.9813405e-05 8.5591903e-05)
(0.00032587537 2.826584e-05 6.5476534e-05)
(0.00041153298 -2.648327e-05 9.401977e-05)
(0.00034352145 -9.6179949e-06 6.6450131e-05)
(0.00035295277 -1.3509357e-05 7.5645857e-05)
(0.00023913052 -6.9311219e-05 1.77353e-05)
(0.00026741202 -7.3492282e-05 1.1967834e-05)
(3.6013706e-05 8.3549034e-06 2.3402551e-05)
(2.2184124e-05 -2.8070156e-06 1.3594485e-05)
(0.00025639009 -5.9841125e-05 1.2414581e-05)
(-4.8136755e-05 -3.0694877e-05 -2.7399813e-05)
(0.00038793542 -2.7167002e-05 9.0035544e-05)
(0.00028527637 -5.618846e-05 3.142881e-06)
(0.0002529873 -7.895141e-05 3.1888878e-05)
(0.00025997677 3.369771e-05 2.5260725e-05)
(0.0002516089 -7.4579124e-05 2.7971082e-05)
(0.00025828829 -7.3318528e-05 3.958898e-05)
(0.00023624599 -7.6304411e-05 3.1657508e-05)
(0.00023835572 -6.830018e-05 1.0996477e-05)
(0.00030234012 -5.0878017e-05 6.3467007e-06)
(0.00015362465 -5.1900715e-05 3.8471683e-05)
(0.00031502272 -3.9548109e-05 1.366363e-05)
(0.00017823073 -6.3329334e-05 3.0624596e-05)
(0.00038429118 -3.7317785e-05 0.00022132425)
(0.00025672867 -4.8473949e-05 1.8832928e-06)
(0.00023380557 -8.8111698e-05 2.7995056e-05)
(0.00019610608 -6.8764406e-05 4.124479e-05)
(0.00014001504 -4.5562946e-05 4.0573871e-05)
(0.00028677405 -2.1150462e-05 2.113765e-05)
(0.00016038552 -6.0701698e-05 2.8065381e-05)
(0.00024508835 -7.6003891e-05 2.1131595e-05)
(0.00017110054 -6.4700646e-05 4.0995461e-05)
(0.00011521722 -3.9494012e-05 3.6631302e-05)
(0.00013975 -5.5023962e-05 3.7779596e-05)
(0.00017745171 -6.9673192e-05 3.3396071e-05)
(0.00022828728 -7.8065816e-05 2.2912524e-05)
(0.00010762171 -3.8500858e-05 4.4730797e-05)
(0.00012956358 -5.2086663e-05 3.5665815e-05)
(0.0002287008 -6.7308308e-05 1.0825537e-05)
(0.00015561029 -6.7214401e-05 2.8953334e-05)
(0.00018112713 -8.0374148e-05 2.978312e-05)
(0.00019291961 -7.0805509e-05 1.3724387e-05)
(0.00023562277 -7.9212828e-05 1.0240009e-05)
(0.00013453722 -6.4945271e-05 2.5821612e-05)
(0.00010596028 -4.5277957e-05 3.4615268e-05)
(0.00017617892 -7.295837e-05 2.3229313e-05)
(0.00013874795 -7.2249318e-05 1.9188852e-05)
(0.00011833583 -6.4989005e-05 2.5192326e-05)
(0.00010332519 -4.3053931e-05 2.9922056e-05)
(0.00038713165 -3.9738557e-05 0.00021948665)
(0.00036048536 -3.3277371e-05 0.0002032231)
(0.00026419683 -2.8829836e-05 0.00015694429)
(0.00028212244 -5.7082015e-05 3.9083031e-06)
(6.8385488e-05 -1.8167599e-05 3.8045424e-05)
(0.00030720657 -4.1056052e-05 7.6169024e-06)
(0.00024040304 -4.9765341e-05 2.9211545e-07)
(0.00026951038 -2.1732574e-05 1.5735715e-05)
(6.2045876e-05 -1.5021482e-05 2.9942667e-05)
(0.00023749856 -5.5061398e-05 -4.0403669e-07)
(0.00024911389 4.7723617e-05 2.610111e-05)
(5.8168961e-05 -1.6348157e-05 2.3748653e-05)
(4.7125601e-05 -8.1882032e-06 3.3853839e-05)
(4.8913248e-05 -1.1136584e-05 3.5102956e-05)
(5.742358e-05 -2.5223577e-05 1.9308409e-05)
(0.00028280912 -1.122009e-05 2.3073629e-05)
(0.00024711066 -4.2632473e-05 3.7407472e-06)
(0.00028215728 -3.6955164e-05 9.3956077e-06)
(0.00029795868 -3.4573651e-05 1.552494e-05)
(0.00025057224 -6.150924e-05 7.6496556e-07)
(0.0002433603 -5.1472812e-05 1.7367164e-06)
(0.00029343532 -2.5186851e-05 1.8471368e-05)
(0.00025284035 -4.1549958e-05 1.2161815e-05)
(0.00023830326 -4.8722853e-05 2.3629897e-06)
(0.00026563044 -2.6902729e-05 1.9155869e-05)
(0.00025590225 -2.7243645e-05 1.2268788e-05)
(0.00024703888 -4.148094e-05 5.1175865e-06)
(0.0002455912 -6.1768779e-05 -8.415812e-06)
(0.00017565887 -4.1525775e-05 1.9492971e-06)
(0.00021680254 -6.2653535e-05 -3.7582566e-06)
(0.00026614854 -6.9489003e-05 1.7490028e-06)
(0.00025863107 -5.0425018e-05 7.8195093e-06)
(0.00025336762 -3.2039369e-05 1.3653776e-05)
(0.00029088345 -2.4693185e-05 2.4922915e-05)
(0.00027385023 -6.2190641e-05 2.0917588e-06)
(0.000262994 -4.6718522e-05 1.226144e-05)
(0.00029652846 -1.6889702e-05 2.3892105e-05)
(0.00025682826 -2.4416966e-05 1.8159692e-05)
(0.0002958388 -1.5280419e-05 2.7756048e-05)
(0.00028480117 -2.1055304e-05 2.5612373e-05)
(0.00033748078 1.3724157e-05 3.9903573e-05)
(0.00027131902 -1.1363034e-05 2.7127176e-05)
(0.00025923863 -4.4535922e-05 1.2073135e-05)
(0.00029932669 -9.1532471e-06 2.8436356e-05)
(0.00028586135 -3.4599374e-05 2.0909555e-05)
(0.00026676607 -3.6476884e-05 1.7424352e-05)
(0.00020512918 -5.2776434e-05 4.1690105e-06)
(0.00028824895 -1.7303515e-05 3.2027658e-05)
(0.0002915374 -2.3989825e-05 2.7143726e-05)
(0.00029585718 -3.8100602e-06 3.6028984e-05)
(0.00027476479 -1.024502e-05 3.4950201e-05)
(0.00024719165 -6.0009704e-05 1.6869251e-05)
(0.00033523751 3.0707028e-05 5.8081038e-05)
(0.00033975902 4.0537978e-05 7.01779e-05)
(0.00020069604 -2.9869179e-05 1.6436939e-05)
(0.00037888654 3.1790999e-05 7.5397296e-05)
(0.00028767473 -2.9827699e-05 3.3405412e-05)
(0.00029332107 -8.0816534e-06 3.846699e-05)
(0.00028596969 3.3462049e-05 6.1497793e-05)
(0.00027161482 -3.3299192e-05 2.9630423e-05)
(0.0003042984 -2.9755764e-06 4.509985e-05)
(0.00031179534 1.4636107e-05 6.2248859e-05)
(0.00024612215 -1.5433245e-05 3.2172276e-05)
(0.00031838163 -8.1579649e-06 4.9163476e-05)
(0.0002600274 -1.0449748e-05 3.7674284e-05)
(0.00031136457 5.6018023e-07 4.1790465e-05)
(0.00023224997 -3.4883434e-05 2.8966781e-05)
(0.00026766888 -2.2669888e-05 4.2737674e-05)
(0.00026352994 -3.1348814e-05 3.4735014e-05)
(0.0003199901 2.2016883e-07 5.3520299e-05)
(0.00026756338 -8.6395886e-06 4.8393282e-05)
(0.00032009733 -2.6849573e-05 6.0749162e-05)
(0.0003169441 -1.8720422e-05 6.0802449e-05)
(0.00033036333 8.014508e-06 5.4134883e-05)
(0.00032864574 -3.0585738e-06 5.7738962e-05)
(0.00032228609 -4.0401977e-06 5.9707133e-05)
(0.00031424083 8.0290056e-06 5.9127057e-05)
(0.00038498369 3.3338077e-05 8.9399729e-05)
(0.00031496701 -2.40488e-05 6.1120498e-05)
(0.00035323037 -8.2731125e-06 3.7931476e-05)
(0.00028918026 7.0013783e-06 6.1509442e-05)
(0.00031506167 -1.1655776e-05 7.0186906e-05)
(0.0003957768 -6.4689175e-05 0.00010044473)
(0.00025166909 -1.5240047e-05 5.3358057e-05)
(0.00031017851 -1.1965754e-05 7.2943983e-05)
(0.00028789361 4.0676893e-06 6.2658337e-05)
(0.00031429956 -3.5845469e-06 7.40217e-05)
(0.00024747222 -1.2969923e-05 5.3934335e-05)
(0.00029954461 1.421685e-05 6.926745e-05)
(0.00029089419 -2.4017622e-05 5.6958209e-05)
(0.00029241764 -8.2566713e-06 7.3525564e-05)
(0.000276747 -8.4653537e-06 7.0178841e-05)
(0.00033490238 1.8378602e-05 7.3990878e-05)
(0.00028872788 7.7782086e-06 6.9322941e-05)
(0.00028853631 -5.3446438e-06 7.6479074e-05)
(0.0003680977 -5.7875179e-05 9.1513793e-05)
(0.00028931847 6.0956823e-06 7.6163388e-05)
(0.00030422273 1.315067e-05 7.9746296e-05)
(0.0002958101 -1.4822328e-05 8.0483295e-05)
(0.00030073847 1.0140528e-06 8.609559e-05)
(0.00032591533 4.1623363e-05 7.8538722e-05)
(0.00028193123 1.7617717e-05 7.3640814e-05)
(0.00028195756 -3.5761289e-06 8.5474114e-05)
(0.00029748385 -6.3430342e-06 8.2636173e-05)
(0.00036938009 2.0636628e-05 0.00010817937)
(0.00026230009 -1.3936341e-06 3.5282155e-05)
(0.00030219821 7.581868e-06 9.1873023e-05)
(0.0002781463 -9.6085532e-07 8.6267857e-05)
(0.00032561654 1.9568309e-06 0.00010599061)
(0.00034543108 1.2306216e-05 9.4761671e-05)
(0.00029095368 5.501035e-06 8.3296132e-05)
(0.00030625628 -8.4312365e-06 9.2514339e-05)
(0.00031758906 -3.3037949e-06 4.1401816e-05)
(0.000261787 -1.9342991e-05 7.7630733e-05)
(0.00035994911 1.447009e-05 0.00010782845)
(0.00034560524 1.418588e-05 6.2144312e-05)
(0.00027788116 1.8449082e-06 9.6946448e-05)
(0.00031138889 1.0575046e-06 0.00010304329)
(0.00038053373 2.4616299e-05 0.00011697835)
(0.00028513806 1.63291e-05 7.9183944e-05)
(0.00031468115 -1.8821252e-06 0.00011318654)
(0.00034508991 2.8414741e-07 3.4730458e-05)
(0.00027193292 -6.6719979e-06 9.7645778e-05)
(0.00023341869 -2.086738e-05 5.0821314e-05)
(0.00034604448 2.4179589e-05 7.3138035e-05)
(0.00038510755 1.8532546e-05 0.00011536786)
(0.00023852549 -1.3921175e-05 5.4858626e-05)
(0.00027036403 3.4519335e-06 0.00010803713)
(0.00027485449 -2.1529391e-06 0.00010406454)
(0.00029595629 -3.4109196e-06 0.00012590471)
(0.00027645919 4.0559902e-06 0.00011496542)
(0.00022277098 -1.7282294e-05 5.6979996e-05)
(0.00024519556 -4.6723283e-06 9.5074755e-05)
(0.00024235648 -8.681201e-06 8.9444329e-05)
(0.00035324156 2.0895593e-05 6.1743919e-05)
(0.00033963858 2.5785865e-05 9.2458723e-05)
(0.00033244027 1.759932e-05 5.9255682e-05)
(0.00028783827 -2.569219e-06 0.00012148455)
(0.00029715027 -5.6144686e-07 0.00012798077)
(0.00033403735 9.6067068e-06 5.5327057e-05)
(0.00027074552 -9.4253602e-06 0.00011628609)
(0.00029235367 -4.1601642e-06 0.00012739282)
(0.0002598208 -2.9268393e-05 3.7628432e-05)
(0.00036131179 -6.0949038e-05 0.0001002565)
(0.00024588402 2.0106219e-05 6.0720246e-05)
(0.00031068751 -6.2075657e-06 0.00013519385)
(0.00029732779 -3.6188399e-05 5.6387787e-05)
(0.00027025688 -5.5238614e-06 0.00011698225)
(0.00027411059 -9.7926404e-06 0.00011739911)
(0.00035352908 1.9924485e-05 0.00011828359)
(0.00022664585 -3.6070871e-05 2.4590709e-05)
(0.00032018994 -6.0379204e-06 0.00013956164)
(0.00036241362 2.6801127e-05 0.00011452365)
(0.00034045248 7.9783082e-06 0.00011158537)
(0.00029139461 -3.2808013e-05 5.4411147e-05)
(0.00035671968 1.6412163e-05 0.00011328425)
(0.00034646722 5.9886801e-06 0.00011049561)
(0.00034274689 2.6937188e-05 0.00010126746)
(0.00032668941 1.0805005e-05 0.00011200175)
(0.00033527006 3.4268204e-06 0.00012343936)
(0.00034096246 2.9475812e-05 7.7396439e-05)
(0.00034144785 3.550466e-05 7.4590299e-05)
(0.0003402737 2.1018102e-05 7.3170948e-05)
(0.00036718363 2.5591846e-05 0.00011281591)
(0.00033969029 2.5537323e-05 0.00011624437)
(0.00034220182 3.0345707e-05 8.8928237e-05)
(0.00033674418 2.1526176e-05 0.00011860676)
(0.00033788093 8.5463539e-06 0.00013308374)
(0.00031900116 3.0992191e-05 8.5150653e-05)
(0.00035763639 3.5365395e-05 0.00010270942)
(0.00035122204 2.0506924e-05 0.00012024267)
(0.00026911146 5.1586729e-06 3.7331455e-05)
(0.00039437137 3.1305177e-05 0.00013318807)
(0.00037520652 3.6908905e-05 8.8738695e-05)
(0.00025758769 -1.3961366e-05 7.7219589e-05)
(0.00034173869 -6.9091973e-05 0.00014918879)
(0.00027199121 -1.6287115e-05 9.0258027e-05)
(0.00039571468 3.8796518e-05 0.00014120289)
(0.0003397956 1.3290417e-05 0.00012180448)
(0.00034816401 3.4390659e-05 6.9167191e-05)
(0.0003499227 4.3701391e-05 8.2132731e-05)
(0.00034309905 1.4085532e-05 0.00011227652)
(0.00036248775 3.1205557e-05 0.00013517689)
(0.0003304462 7.010795e-05 0.0001499154)
(0.00034415233 7.6882469e-06 0.00013210445)
(0.00040383432 3.7065616e-05 0.00015174284)
(0.00035293125 3.9130042e-05 0.00013423597)
(0.00036833832 2.7834712e-05 6.9123975e-05)
(0.00026649747 -1.2956677e-05 9.002989e-05)
(0.00034788197 5.0040556e-05 8.178252e-05)
(0.00036720768 3.7321727e-05 0.00014392415)
(0.00031986649 3.333474e-05 0.00013164609)
(0.00037753374 2.1836225e-05 0.00013858247)
(0.0002108041 -7.9857579e-06 8.227625e-05)
(0.00023603713 -8.6661626e-06 0.00010046845)
(0.00038079573 3.0382003e-05 0.00015639097)
(0.00034586839 2.6326436e-05 0.00013946286)
(0.00032998923 2.781196e-05 6.9360816e-05)
(0.00032955457 -1.4931156e-06 0.00014248653)
(0.00023240795 -3.4705249e-05 3.196752e-05)
(0.00034141866 7.6238935e-06 5.6941242e-05)
(0.0003361093 2.9954102e-05 8.1837708e-05)
(0.00036829189 4.1007728e-05 0.00011512785)
(0.00037071024 2.6582381e-05 0.00014136189)
(0.00032465794 5.4692793e-07 0.00014111879)
(0.00034882844 2.2751835e-05 0.00012449302)
(0.00037821476 3.9583391e-05 0.0001292367)
(0.00033099428 3.3442155e-05 9.568796e-05)
(0.00023411777 -4.6572311e-05 3.2446095e-05)
(0.00027566388 -1.6179197e-06 0.00012203474)
(0.00038945772 3.8446955e-05 0.00013787749)
(0.00028585936 -1.2994053e-05 0.00011820842)
(0.00036345906 3.7491989e-05 0.00014293359)
(0.00036180859 2.1253446e-05 0.00013374299)
(0.00035482207 1.8110604e-05 0.00012820086)
(0.00033885717 2.6627978e-05 0.00013607965)
(0.00034400685 1.3042431e-05 0.0001304982)
(0.00034377548 2.3657073e-05 6.3495147e-05)
(0.00027467304 -1.1801183e-05 0.00011630869)
(0.00036553931 2.5382801e-05 0.00014454028)
(0.00034040411 7.0214889e-06 0.00013793112)
(0.00026575839 -1.9250433e-06 3.3770351e-05)
(0.00032372723 3.2432451e-05 0.0001382072)
(0.00037335037 3.3832491e-05 0.00011233629)
(0.00030664402 1.5697983e-05 0.00012506621)
(0.00031340292 1.1407203e-05 6.1100924e-05)
(0.00030613464 1.8149282e-05 0.00012649377)
(0.00038152927 3.5156645e-05 0.00016188268)
(0.00034869841 3.0351026e-05 0.00014601385)
(0.00034919845 3.9957804e-05 0.0001227923)
(0.00037420521 4.1136963e-05 0.00015570269)
(0.00027886474 -2.3651201e-05 7.4568221e-05)
(0.00030589912 -1.4645773e-05 0.00012848533)
(0.0002830649 -3.5852389e-05 7.2858239e-05)
(0.00034564659 3.4489312e-05 0.00015477933)
(0.00039754491 2.9736061e-05 0.0001715465)
(0.00034812344 2.695288e-05 0.00015430382)
(0.00023301943 -6.1440753e-06 9.8318628e-05)
(0.00034942683 1.1716188e-05 0.00013792754)
(0.00041078851 1.0393265e-05 0.0001702234)
(0.0002755233 -1.4320281e-05 0.0001200102)
(0.00025469263 4.2564103e-05 2.3120855e-05)
(0.00033079852 1.5482476e-05 0.00014674306)
(0.00029549102 4.1407355e-05 2.1622033e-05)
(0.00028709331 -1.5307428e-05 0.0001190165)
(0.00033866246 3.4889079e-05 8.2800011e-05)
(0.00027080997 -7.7887329e-06 0.00011094906)
(0.00036181468 4.0401279e-05 0.00010433571)
(0.00030780921 8.1465715e-06 0.0001352754)
(0.00033415945 3.990335e-06 0.00014749975)
(0.00029975884 -8.8367516e-06 0.00012379094)
(0.00029293636 -7.2094393e-06 0.00013015411)
(0.00027880504 -3.3026051e-05 7.1445035e-05)
(0.00034559365 3.8718599e-05 9.2916119e-05)
(0.00032891597 -9.3372466e-06 0.00013373176)
(0.00035998136 -7.6742715e-05 0.0001328397)
(0.0002885177 -3.728894e-06 0.00012543783)
(0.0003253304 7.5762042e-05 0.000130558)
(0.00026407177 7.8977146e-06 3.8030432e-05)
(0.00037280453 -1.955366e-06 7.5002431e-05)
(0.00021561781 -4.8539319e-06 8.6140278e-05)
(0.0002823091 -1.1922692e-05 0.00011048034)
(0.00027313321 -1.4004817e-05 0.00011672209)
(0.00027105513 -1.0986879e-05 0.00011192318)
(0.00041327243 1.6751298e-05 0.00017607169)
(0.00041728076 1.4154825e-05 0.00018279537)
(0.00028337925 -1.2416274e-05 0.00010420963)
(0.00038109819 4.8369783e-05 0.00010621479)
(0.00026269573 -5.2120946e-06 0.00010057742)
(0.00035370444 -1.2577483e-05 7.2693167e-05)
(0.00034408237 2.1497042e-06 0.00015103118)
(0.00043897333 -3.5465683e-05 0.00011234957)
(0.00033712677 6.3143895e-06 0.00014398591)
(0.00026913476 -4.512741e-06 0.0001039946)
(0.00036868944 -2.4096846e-05 8.3140375e-05)
(0.00032200763 -2.1894198e-06 0.00012799395)
(0.0003084407 -1.0321925e-05 0.00011684445)
(0.00033106428 9.8320419e-06 0.00014727507)
(0.00028656068 -1.3305768e-05 0.00010561297)
(0.00034285243 -1.8285566e-06 0.00013700042)
(0.00025067706 -2.007624e-05 9.2641852e-05)
(0.00024926223 -8.123473e-06 0.00010272484)
(0.00022197981 -6.7317339e-06 8.854182e-05)
(0.00032377826 -1.4271196e-05 0.00011970039)
(0.00036040133 6.4279511e-06 0.00015481944)
(0.00036636569 -2.0270647e-07 0.00015754528)
(5.2072094e-05 2.2865582e-05 4.4110932e-05)
(0.00033611598 8.3530061e-06 0.00014761129)
(0.0003239052 -1.0590435e-06 0.00012828002)
(0.00036168798 5.4752422e-06 0.00015173883)
(0.00033412581 6.9489352e-06 0.00013554376)
(0.00036174438 4.5187217e-06 0.00015569435)
(0.00035280713 1.0038556e-05 0.00014939821)
(0.00035651623 9.284661e-06 0.0001548682)
(0.0003321306 7.7999584e-06 0.00013766876)
(0.00024691025 3.7680958e-05 2.9148103e-05)
(0.00024133544 3.9816484e-05 2.7134167e-05)
(0.00040057827 -6.0266437e-05 0.00011537676)
(0.00025967714 -6.3307906e-05 7.0130971e-06)
(0.00028301654 3.2793535e-05 5.8549392e-05)
(0.00027038194 -6.8496335e-05 -1.1374732e-06)
(0.00034551989 3.6075874e-05 6.4954596e-05)
(0.00036708733 2.6432633e-05 6.6408222e-05)
(0.0002881801 3.7331799e-05 6.5910499e-05)
(0.00027746711 3.6935354e-05 5.9104764e-05)
(0.00037658117 3.1510161e-05 6.9180116e-05)
(0.00032443107 4.2082393e-05 6.3833594e-05)
(0.00031356814 4.8393128e-05 6.8495242e-05)
(0.00037235043 2.8990946e-05 6.4566131e-05)
(0.00030984917 4.1597298e-05 6.069588e-05)
(0.00032244722 3.5546078e-05 6.0883746e-05)
(0.00030408602 5.5120244e-05 7.5288694e-05)
(0.00030806874 4.8416317e-05 6.4658613e-05)
(0.00030302146 5.4469219e-05 7.4737085e-05)
(0.00032523578 5.957864e-05 6.5842111e-05)
(0.00033223053 5.0195836e-05 6.7274613e-05)
(0.00024943088 2.9538272e-05 4.7840774e-05)
(0.00021902575 -9.1872413e-05 1.1412966e-05)
(0.00033702412 1.9645291e-05 5.9145487e-05)
(0.00032766811 5.3290588e-05 6.3734616e-05)
(0.00017253568 -8.2891248e-05 1.4324257e-05)
(0.00024255848 3.3609263e-05 4.4871755e-05)
(0.00024012712 -7.5113503e-05 7.0676631e-06)
(0.00036433699 1.657042e-05 6.6718356e-05)
(0.00031657836 3.1726344e-05 5.8264998e-05)
(0.0003166501 2.7960734e-05 5.8980586e-05)
(0.00033397183 1.1989326e-05 6.1505321e-05)
(0.00030771402 4.6933426e-05 5.8549066e-05)
(0.00036355582 1.2542479e-05 6.9601217e-05)
(0.00028630473 2.0210694e-05 5.0244262e-05)
(0.00030804449 3.6288549e-05 5.2614144e-05)
(0.00026901666 4.1341341e-05 5.0082683e-05)
(0.00030435063 5.6913935e-05 5.7549219e-05)
(0.00031408868 2.7613239e-05 5.5878648e-05)
(0.0003113524 2.8142465e-05 5.2398734e-05)
(0.00027224713 6.1330649e-06 5.2438743e-05)
(0.00034131892 1.7145609e-05 6.4800252e-05)
(0.00029010433 4.6050511e-05 5.1866803e-05)
(0.00026573154 3.8644301e-05 4.833035e-05)
(0.00026544677 2.6271259e-05 4.0677806e-05)
(0.00029252133 1.6814449e-05 4.9080441e-05)
(0.00030862322 5.1580334e-05 4.9981388e-05)
(0.00033681888 1.0352672e-05 6.4270668e-05)
(0.00037410036 3.1844258e-05 6.1872518e-05)
(0.00030045136 1.189364e-05 5.4811591e-05)
(0.00039953115 3.0358141e-05 7.0618141e-05)
(1.2615378e-05 -1.5012408e-05 5.9581377e-06)
(0.0003879659 -5.1648826e-05 0.00021223296)
(0.00036649951 -3.8056258e-05 0.00020717483)
(0.0003928742 3.9279382e-06 7.83258e-05)
(0.00039680726 4.9264073e-06 7.6731105e-05)
(0.00030164631 4.3889189e-05 4.4435937e-05)
(0.00040396623 -2.782609e-05 0.00024435755)
(0.00031711125 3.6786852e-05 5.1254669e-05)
(0.00029742066 3.6803057e-05 4.4469822e-05)
(0.00038875251 4.8499484e-08 7.6671863e-05)
(0.00037488625 2.8438697e-05 6.5038397e-05)
(0.00031388624 3.0624449e-05 5.1824792e-05)
(0.00036730465 2.2553902e-05 5.9893353e-05)
(0.00039493611 1.2607424e-07 7.8007482e-05)
(0.00034796751 1.0746772e-05 6.6330312e-05)
(0.00032678574 1.4436978e-05 5.9301547e-05)
(0.00038241895 1.8158425e-06 7.3800394e-05)
(0.00029765733 3.3434038e-05 4.4679627e-05)
(0.00037669002 3.3831255e-07 7.2386992e-05)
(0.00028220642 1.1579672e-05 4.7313926e-05)
(0.00030508535 2.3857831e-05 4.7872976e-05)
(0.00031918366 2.257412e-05 5.5689795e-05)
(0.0003209141 8.4422514e-06 5.9603809e-05)
(0.00029569694 1.3288605e-05 5.3997312e-05)
(0.0002879154 3.2796206e-05 4.3974216e-05)
(0.0003556921 2.5183706e-06 7.0931488e-05)
(0.00027468804 3.5044003e-05 3.6957451e-05)
(0.000354698 -3.1703918e-05 0.00020775157)
(0.00037509849 -5.9965261e-06 7.9898818e-05)
(0.00036528746 2.9936199e-05 6.6341221e-05)
(0.00027882042 2.5262164e-05 4.4423231e-05)
(0.00034973778 9.6078351e-08 6.7925453e-05)
(0.00035425824 2.468734e-05 5.9085029e-05)
(0.00035900638 5.4318697e-05 0.00019735813)
(0.00041581948 -1.0073429e-05 8.7500878e-05)
(0.00031340833 3.6140131e-05 4.8996551e-05)
(0.00042474521 -5.7407301e-06 8.9067323e-05)
(0.00029113174 6.3528226e-06 5.4540361e-05)
(0.00034576286 1.4659727e-05 6.170473e-05)
(0.0003581918 3.2277036e-06 7.0157223e-05)
(0.00037732092 -1.8484701e-05 8.1726901e-05)
(0.00034467659 1.7847797e-05 5.7622578e-05)
(0.00039494871 -6.6685878e-07 7.7088978e-05)
(0.00035131858 -7.8792968e-08 6.7803866e-05)
(0.00030305251 2.4096944e-05 4.537927e-05)
(0.00038414462 -1.1819238e-05 8.11115e-05)
(0.00025362919 3.9553414e-05 6.3120945e-05)
(0.00030718042 2.1037579e-05 5.0277112e-05)
(0.00033695148 5.1932701e-06 6.2003256e-05)
(0.00031989867 1.0754372e-05 5.7553194e-05)
(0.0004102088 -4.6124009e-06 8.5102782e-05)
(0.0002537928 2.5230306e-05 3.7141287e-05)
(0.0002469181 2.9337253e-05 3.2031929e-05)
(0.0003925487 -7.2086702e-06 8.460934e-05)
(0.00026895552 1.3841906e-05 4.4389242e-05)
(0.00028356178 3.2373889e-05 4.530429e-05)
(5.2777089e-05 1.7973698e-05 4.025657e-05)
(0.00028644642 1.7756824e-05 4.6732233e-05)
(0.0003697834 -1.3131971e-05 7.9702048e-05)
(0.00027474481 3.095944e-05 4.1358578e-05)
(0.00037827038 -2.1306547e-05 8.896849e-05)
(0.00041894091 -1.8026365e-05 9.1005162e-05)
(0.0004148354 -4.1687178e-05 0.00010366042)
(0.00011364467 -2.1068901e-05 3.7922122e-05)
(0.0002855116 1.8029856e-05 5.0176937e-05)
(0.0002662002 2.0327221e-05 3.9863657e-05)
(0.00027659417 1.1514584e-05 4.5932544e-05)
(0.00041342332 -2.865157e-05 9.3521549e-05)
(0.00030652961 4.1662609e-06 5.8372401e-05)
(0.00025882124 2.6051702e-05 3.4515326e-05)
(0.00020184748 2.7602676e-05 3.0290664e-05)
(0.00041196489 -3.039957e-05 9.7014061e-05)
(0.00025341145 1.440867e-05 3.5028998e-05)
(0.00033074031 -1.1215517e-05 7.045445e-05)
(0.00024000058 6.2299231e-06 4.2813368e-05)
(5.416569e-05 -7.2381877e-06 3.8514517e-05)
(0.00021628349 1.4211746e-05 3.5336607e-05)
(0.00027635671 1.5760735e-05 4.9349578e-05)
(0.00041774471 -6.3763183e-06 9.4782382e-05)
(0.00041809825 -2.4971823e-05 9.5174567e-05)
(0.00037482972 -1.6045551e-05 8.4854571e-05)
(0.0001985788 -8.7182844e-06 7.3988511e-05)
(0.0002748077 1.5434247e-05 5.0678004e-05)
(0.0002661023 2.7209969e-05 4.6900426e-05)
(0.00037378274 4.6416333e-05 0.00014772253)
(0.00026503671 9.1954693e-06 4.8400184e-05)
(0.00036153748 3.8062592e-05 0.0001235134)
(5.6288222e-05 7.3971736e-06 3.5903482e-05)
(0.00038117371 -1.8655172e-05 8.5953337e-05)
(0.00028091386 4.8593423e-06 5.8160949e-05)
(0.00035579821 -2.2386905e-05 8.5579678e-05)
(0.00034261092 -7.1179699e-06 6.896881e-05)
(0.00033093693 2.773049e-06 6.6142265e-05)
(4.3877533e-05 -1.5262597e-06 3.6495297e-05)
(4.4141916e-05 4.7347136e-06 3.0911072e-05)
(0.00043597363 -3.8290712e-05 0.00011155169)
(0.00035822243 -7.4984339e-06 7.5579513e-05)
(0.00042497494 -3.5537629e-05 0.00010707984)
(0.0003169389 5.9094289e-06 5.8337074e-05)
(0.00037779856 -2.3089642e-05 8.7309178e-05)
(0.00033632314 -1.7929373e-05 7.7037813e-05)
(0.00026980196 1.0276873e-05 4.7599187e-05)
(0.00042349989 -3.0171669e-05 0.00010117887)
(0.00037820756 -3.1780734e-05 9.1939814e-05)
(0.00043093007 -3.0360599e-05 0.00010972183)
(0.00024894308 -6.3776865e-05 3.5746147e-06)
(0.00031581878 1.0054062e-05 5.9705825e-05)
(0.00042636866 -3.6455539e-05 0.00010601504)
(0.00042958025 -3.4359746e-05 0.00010602737)
(0.00037568803 -2.6571066e-05 9.8046055e-05)
(0.00038249888 -2.0293375e-05 9.0428442e-05)
(0.00036805454 -3.0698107e-05 9.6506689e-05)
(0.0002768635 4.4021224e-05 4.3000551e-05)
(0.00043587688 -3.9307524e-05 0.00011855507)
(0.00033971375 -1.1516812e-05 7.3531564e-05)
(0.00031264015 6.438679e-05 4.9335969e-05)
(0.00020950236 -9.8734818e-06 7.769982e-05)
(0.00028761819 4.2246163e-05 4.2440705e-05)
(0.00022460865 1.9682288e-05 4.5398265e-05)
(0.00025299151 -7.4758233e-05 2.9914382e-06)
(0.00044099599 -4.1309826e-05 0.00012231347)
(0.00043477566 -4.1986105e-05 0.00012075089)
(0.00031057252 -5.2759508e-06 6.3783422e-05)
(0.0003802515 -4.1385715e-05 0.00012012078)
(0.00031545 3.5236687e-05 6.4524412e-05)
(0.00032679553 -1.1843945e-06 6.5104182e-05)
(0.00039368709 -4.9060225e-05 0.00012684928)
(0.00028104538 3.6386643e-05 3.9783889e-05)
(0.0002816928 4.6094041e-05 3.8543331e-05)
(0.00037929701 -3.4506301e-05 0.00011125565)
(0.00038138978 -4.3803072e-05 0.00012140398)
(0.00035788573 -3.4500046e-05 9.7628065e-05)
(0.00022027387 3.0395016e-05 2.9139223e-05)
(0.0002555206 -3.2006568e-05 6.4149217e-05)
(0.0002569493 -3.5622456e-05 5.7979257e-05)
(0.00037541618 -4.5704164e-05 0.00012106808)
(0.00037545123 -3.4365794e-05 0.00010655212)
(0.0003029042 3.3365547e-06 0.00011301961)
(0.00025245235 -2.2360744e-05 7.1980352e-05)
(0.00024817488 -2.0264179e-05 6.1846909e-05)
(0.00041882531 -2.6184334e-05 9.5843731e-05)
(0.00027438133 4.452227e-05 3.7752133e-05)
(0.00043653324 -3.0319971e-05 0.00010324589)
(0.0004175689 -4.0571315e-05 0.000112814)
(0.00037643641 -5.2292526e-05 0.00013064624)
(0.00039649577 -4.079062e-05 0.0001113301)
(0.00036118173 -1.8049895e-05 9.0679146e-05)
(0.00034684615 -4.456781e-05 0.00011727565)
(0.0003496024 -1.6315693e-05 7.9873654e-05)
(0.00031735123 -6.5073058e-06 6.9431901e-05)
(0.00037063019 -3.8260658e-05 0.00010722469)
(0.00039045153 -4.5468581e-05 0.00011270077)
(0.0004011406 -5.0105983e-05 0.00013355453)
(0.00024416253 3.746536e-05 3.3238304e-05)
(0.00040287486 -2.4475408e-05 0.00011013057)
(0.00025171652 2.6241212e-05 3.5042411e-05)
(0.00034025983 -3.4631237e-05 0.00011092574)
(0.00028479972 -3.8794241e-05 0.00010654734)
(0.00036009357 -4.5188071e-05 0.00013226645)
(0.00045753647 -6.2289714e-05 0.00016255697)
(0.00039070998 -2.0655142e-05 0.00010332958)
(0.0003943777 -3.6784776e-05 0.00010845716)
(0.00035680508 -2.1749603e-05 8.8165816e-05)
(0.00021014442 3.1996585e-05 2.9727347e-05)
(0.00023664313 2.702532e-05 3.1860989e-05)
(0.00020944794 1.624891e-05 3.042701e-05)
(0.00037962087 -2.3547721e-05 0.00010186407)
(0.00026996362 -1.4533051e-06 5.3648387e-05)
(0.00035375148 1.0177539e-05 0.0001406616)
(0.0002458702 4.3697533e-06 4.9063151e-05)
(0.00035347664 -4.4011676e-05 0.00013804738)
(0.00047396844 -6.836716e-05 0.00017680574)
(0.00042824321 -5.8671792e-05 0.00016791961)
(0.00037345474 -3.9631855e-05 0.00010088255)
(0.00025524652 2.0717414e-05 4.1718811e-05)
(0.00026394752 -1.2403644e-07 5.5655863e-05)
(0.00035197219 -4.7318958e-05 0.000139676)
(0.00040906815 -5.1464338e-05 0.00013904216)
(0.00033578455 -4.088541e-05 0.00012704928)
(0.00033695594 -3.7847084e-05 0.00011359864)
(0.0002236856 -8.5074147e-05 3.8200223e-06)
(0.00048203184 -6.2521454e-05 0.00017619279)
(0.00038118504 -3.3189296e-05 0.00011425671)
(0.00043510828 -5.9402877e-05 0.0001802444)
(0.00031895444 4.4702762e-07 6.3717239e-05)
(0.00023190867 -8.1114439e-05 8.1713662e-06)
(0.00021651482 -6.4866445e-05 6.1464799e-05)
(0.00033457809 -3.7764412e-05 0.00012996915)
(0.00026595673 4.5911883e-05 3.5676141e-05)
(0.0002364117 1.1362524e-05 4.7743863e-05)
(0.00036914702 -3.8721239e-05 0.00013262912)
(0.00043349633 -5.3212879e-05 0.00017955353)
(0.00039727601 8.3830966e-07 8.0882467e-05)
(0.0004415036 -5.4184188e-05 0.00018250882)
(0.0003051378 5.9611502e-05 4.5660337e-05)
(0.0004296606 -4.6315726e-05 0.00011809217)
(0.00038830159 -3.6997245e-05 0.00012569761)
(0.00040382012 -5.5796809e-05 0.00014984614)
(0.00027688159 -2.1969728e-06 5.9380484e-05)
(0.00025318361 -3.2427987e-05 5.7516808e-05)
(0.0004253492 -5.7498039e-05 0.00017633617)
(0.00043154892 -5.5813448e-05 0.00017378459)
(0.00044005074 -5.2569311e-05 0.00012994019)
(0.00036116507 -4.278308e-05 0.00013561266)
(0.00030711018 4.306556e-05 7.5014998e-05)
(0.00038314705 -5.1768984e-05 0.00011122708)
(0.00023315309 -4.9875525e-05 2.9159014e-05)
(0.00042597296 -5.5221705e-05 0.00018866477)
(0.00038311897 -4.9332403e-05 0.00016689166)
(5.1247054e-05 2.138074e-05 4.3233658e-05)
(0.00032441541 -8.1482374e-06 6.9301819e-05)
(0.00037885365 -5.3421629e-05 0.00017151654)
(0.00036750212 -4.943965e-05 0.00016147786)
(0.00023857155 3.7865111e-05 2.7299181e-05)
(0.000328889 -8.8332012e-06 7.8619417e-05)
(0.00043751698 -5.4537723e-05 0.00017624532)
(0.00039314604 -2.8045153e-05 0.0001054387)
(0.00042916391 -5.7496366e-05 0.00018998121)
(0.00033045188 -3.9229302e-05 0.00012996117)
(0.00041920401 -5.4405608e-05 0.00019254709)