/*--------------------------------*- C++ -*----------------------------------*\
  =========                 |
  \\      /  F ield         | OpenFOAM: The Open Source CFD Toolbox
   \\    /   O peration     | Website:  https://openfoam.org
    \\  /    A nd           | Version:  11
     \\/     M anipulation  |
\*---------------------------------------------------------------------------*/
FoamFile
{
    format      ascii;
    class       volVectorField;
    location    "985";
    object      wallShearStress;
}
// * * * * * * * * * * * * * * * * * * * * * * * * * * * * * * * * * * * * * //

dimensions      [0 2 -2 0 0 0 0];

internalField   uniform (0 0 0);

boundaryField
{
    wall-fluid_domain
    {
        type            calculated;
        value           nonuniform List<vector> 
33501
(
(1.0690996e-05 4.1023408e-06 1.2618874e-05)
(2.7925832e-06 2.4301945e-07 3.7280202e-06)
(4.6576744e-06 -1.0605341e-07 5.7150257e-06)
(2.2838727e-06 -1.1649472e-07 3.6073883e-06)
(1.7019293e-06 1.6894212e-07 8.143444e-07)
(3.362586e-06 5.164969e-07 4.6099259e-06)
(3.3375208e-06 -8.845218e-07 4.3369218e-06)
(3.2203372e-06 3.8586422e-07 5.81795e-06)
(1.1010279e-05 -6.0961048e-06 9.8635149e-06)
(9.1967378e-07 1.6786731e-07 8.7567765e-07)
(7.8178734e-06 -2.4862807e-06 4.7787288e-06)
(4.5828963e-06 -1.6501726e-07 5.7824867e-06)
(1.4126033e-05 -4.7799822e-06 1.7787446e-05)
(4.093978e-06 6.2642192e-07 8.099672e-06)
(1.9022317e-06 4.8954727e-07 2.6997631e-06)
(1.0790275e-05 4.8335709e-06 1.234739e-05)
(1.5886072e-05 1.3963018e-06 1.4476571e-05)
(1.4850995e-05 2.3138061e-06 1.4499831e-05)
(3.0463532e-06 -1.25599e-07 4.2523762e-06)
(1.7189259e-06 8.6438064e-09 2.2425434e-06)
(1.2957795e-05 2.9032002e-06 1.1373589e-05)
(3.0124764e-06 -1.5585801e-07 3.9861848e-06)
(2.8483393e-06 1.746712e-08 6.8916982e-06)
(4.1894927e-06 5.2664843e-07 5.1278424e-06)
(1.1461016e-05 4.3032842e-06 1.4406001e-05)
(1.0373504e-05 2.9775229e-06 1.3794272e-05)
(3.2788178e-06 1.5525561e-07 4.2178415e-06)
(4.4646585e-06 1.0525765e-06 5.4104802e-06)
(1.5072686e-06 -1.0654272e-07 1.5346077e-06)
(3.6037542e-06 2.224182e-07 4.8558834e-06)
(2.9306378e-06 -6.8487642e-07 4.5293376e-06)
(8.572292e-06 4.0392561e-06 1.3515909e-05)
(3.880263e-06 -1.337716e-07 5.9861848e-06)
(1.146287e-05 2.1540052e-06 1.1928606e-05)
(1.0192999e-05 3.5293494e-06 1.4647734e-05)
(1.1851706e-05 3.0273082e-06 1.526142e-05)
(1.1389884e-05 4.0249281e-06 1.4753983e-05)
(1.5221365e-06 -6.6634837e-08 2.3678107e-06)
(-2.7473613e-07 2.3009111e-08 -3.1800969e-07)
(1.459469e-05 2.3373029e-06 2.1037618e-05)
(-4.0351269e-07 2.1354219e-09 -3.2531146e-07)
(2.8864229e-06 -4.4356911e-07 4.9140999e-06)
(1.2580452e-05 9.9530348e-07 2.1032266e-05)
(1.3159617e-05 -3.9833999e-06 2.1122957e-05)
(1.338315e-05 -3.1327304e-06 2.0659146e-05)
(4.436107e-06 -9.9724666e-07 6.1453865e-06)
(3.431205e-06 5.0969534e-07 4.9232391e-06)
(3.220409e-06 -1.7172418e-07 4.3192873e-06)
(2.9032589e-06 4.9554466e-07 4.510847e-06)
(9.5320436e-06 3.7458497e-06 1.5975888e-05)
(2.4257586e-06 -9.6101074e-07 4.1582312e-06)
(1.314289e-05 1.562207e-06 1.6989103e-05)
(3.2458928e-06 -1.7900093e-07 5.3356752e-06)
(1.1023076e-05 1.4127522e-07 2.1346404e-05)
(3.1425399e-06 -4.2637709e-07 5.0880673e-06)
(3.0073444e-06 -3.4242639e-07 4.6430896e-06)
(2.2950823e-06 -3.3503748e-07 4.4934148e-06)
(1.1602164e-05 5.591927e-06 1.237931e-05)
(9.6855084e-06 2.2882353e-06 1.1270983e-05)
(4.1725709e-07 2.2624326e-07 1.5612794e-06)
(3.4809862e-06 7.4771604e-08 6.3348337e-06)
(4.6467638e-07 -9.206096e-08 1.3585582e-06)
(4.2017481e-06 6.9255009e-08 5.0235927e-06)
(4.549984e-06 -6.6345506e-07 5.2720536e-06)
(1.7224003e-06 -5.266994e-08 2.7202543e-06)
(2.7448179e-06 -5.4330511e-07 3.8547283e-06)
(1.3462127e-05 -3.9601617e-06 2.1088905e-05)
(9.6361122e-06 3.1757017e-06 1.2348359e-05)
(3.4939723e-06 -8.3248405e-07 5.6769015e-06)
(2.9020655e-06 -4.8946219e-08 6.6725754e-06)
(2.6206725e-06 -8.686852e-07 4.5286633e-06)
(1.9348557e-06 2.3086566e-08 2.2958579e-06)
(1.2580648e-05 -7.3221027e-06 1.4072167e-05)
(1.2036835e-05 2.4674657e-06 1.4199704e-05)
(1.2301933e-05 -1.9677908e-06 2.0376401e-05)
(3.9820677e-06 5.8444948e-07 5.0160448e-06)
(1.0934568e-05 2.1226064e-06 1.2696198e-05)
(1.4076638e-05 2.5842195e-07 2.260253e-05)
(1.5737314e-05 -1.5696539e-06 2.1230412e-05)
(9.7872342e-06 3.395027e-06 1.0663883e-05)
(1.2157459e-05 2.6544974e-06 1.137393e-05)
(2.152871e-06 -4.0229532e-07 3.4310189e-06)
(1.9341951e-06 -4.4646136e-07 3.0653928e-06)
(2.3082735e-06 3.032966e-07 3.0170518e-06)
(3.806521e-06 7.9245614e-07 4.8520329e-06)
(1.0174355e-05 2.614378e-06 1.3800709e-05)
(3.4996935e-06 6.4946294e-09 5.2649609e-06)
(9.6080629e-07 1.549366e-07 3.5684431e-07)
(2.1087132e-06 -5.197176e-07 2.3464766e-06)
(5.7433802e-07 -8.6384246e-08 1.3072398e-06)
(3.4679347e-06 2.608502e-07 5.1605956e-06)
(1.004209e-06 1.7059762e-07 1.3454158e-06)
(3.3436782e-06 -2.3726576e-07 5.5387869e-06)
(4.8922172e-06 8.9068284e-07 3.1160347e-06)
(1.1910093e-05 1.8680827e-06 1.2750285e-05)
(1.6944487e-05 2.1910225e-07 1.6116186e-05)
(1.385452e-05 1.2909518e-06 1.5161088e-05)
(1.2563261e-05 2.0399311e-06 1.828526e-05)
(9.9723649e-06 2.7639584e-06 1.1735551e-05)
(3.6329113e-06 -4.4406876e-07 5.4253057e-06)
(3.7994196e-06 -6.8545298e-08 6.4504498e-06)
(1.257955e-06 -6.4766552e-07 2.2682186e-06)
(2.0075106e-06 7.9114085e-07 3.2161453e-06)
(1.0716072e-05 4.3892303e-06 1.1247017e-05)
(3.185306e-06 -1.5551865e-07 1.8226867e-06)
(5.4464365e-06 6.068569e-07 6.6824163e-06)
(4.9825199e-06 7.8818629e-07 7.7303562e-06)
(5.8759334e-06 5.3489058e-07 7.5795877e-06)
(8.8502581e-06 4.8248951e-06 1.1721856e-05)
(1.1328223e-05 3.0196068e-06 1.5368024e-05)
(1.1071328e-05 2.4023463e-06 1.0774864e-05)
(1.0240789e-05 2.8209564e-06 1.3545577e-05)
(1.239506e-05 2.4206407e-06 1.3645103e-05)
(3.0383853e-06 -3.8806789e-07 5.7340537e-06)
(9.9416369e-06 2.4634675e-06 1.3966591e-05)
(1.2125638e-05 3.2694018e-07 1.2684882e-05)
(2.6026609e-06 -7.4149779e-07 6.3816925e-06)
(-5.3347023e-07 -1.7344767e-07 -8.9204433e-07)
(3.3152852e-06 2.2285925e-07 5.9289808e-06)
(1.4462784e-06 -3.4306649e-08 1.7022544e-06)
(4.1944247e-06 1.4030397e-06 2.5740943e-06)
(9.1714408e-06 1.963535e-06 1.1155869e-05)
(9.1054589e-06 2.2115561e-06 1.0392221e-05)
(1.4366444e-05 9.2943386e-08 1.8369334e-05)
(1.0846013e-05 1.7044475e-06 1.2431122e-05)
(4.2074459e-06 4.2412245e-07 5.9421006e-06)
(8.6550298e-06 2.3810204e-06 1.1891682e-05)
(1.4466527e-06 -3.6505295e-08 1.7012346e-06)
(9.3429677e-06 1.789747e-06 1.0448918e-05)
(1.5890036e-06 2.4468057e-07 2.2049925e-06)
(1.1920218e-05 7.9737118e-07 1.1788301e-05)
(8.7030569e-06 2.0022812e-06 1.259111e-05)
(1.9631645e-06 6.5782552e-07 1.4997664e-06)
(2.621214e-06 2.5740943e-08 1.7138765e-06)
(8.2649627e-06 2.8268147e-06 1.3197706e-05)
(2.1294194e-06 -1.1198478e-07 3.0784257e-06)
(-6.5296653e-07 6.6741672e-09 -6.1762788e-07)
(9.5852297e-06 2.9170628e-06 1.1750917e-05)
(8.2613056e-06 2.457983e-06 1.0134613e-05)
(1.6888058e-06 6.2775399e-09 2.1334507e-06)
(8.375156e-06 3.1727428e-06 1.233073e-05)
(9.0627518e-06 1.9651489e-06 1.1460714e-05)
(8.8473288e-06 2.5174375e-06 1.131053e-05)
(6.3490398e-07 1.7538271e-07 1.6482586e-06)
(2.8839414e-06 1.0004481e-07 6.4636007e-06)
(8.5193389e-06 2.16269e-06 1.2460239e-05)
(7.5833537e-06 2.7312106e-06 1.1866547e-05)
(2.6832765e-06 6.2821858e-07 6.0909152e-06)
(8.648825e-06 1.5517885e-06 1.1174903e-05)
(6.0769398e-06 -4.005142e-07 7.7197977e-06)
(1.2026304e-05 -2.5926389e-06 1.8666439e-05)
(1.1561537e-06 -9.4293477e-08 1.1890915e-06)
(1.3872475e-05 -2.5160844e-06 1.9662469e-05)
(8.802163e-06 1.5279248e-06 1.3372842e-05)
(4.3059375e-06 1.4523385e-07 6.3511827e-06)
(7.8821787e-07 4.7725543e-07 2.0094081e-06)
(1.4714205e-06 -2.1281311e-07 5.6270602e-06)
(9.644062e-06 2.4685942e-06 1.0532124e-05)
(7.1817207e-07 -1.635274e-07 1.1748258e-06)
(2.4709324e-06 1.0120297e-06 5.6241721e-06)
(8.7606932e-07 6.7363203e-08 8.8252086e-07)
(5.13442e-07 1.356448e-07 1.5196597e-06)
(1.1267993e-05 2.3022331e-06 2.1632164e-05)
(1.0087322e-05 1.148271e-06 9.2417129e-06)
(3.9002891e-06 3.9955053e-07 5.9114431e-06)
(1.2707923e-05 -2.3604545e-06 1.957763e-05)
(5.2361853e-07 -4.1703203e-07 1.6427114e-06)
(4.5003579e-06 2.679309e-07 6.4063087e-06)
(4.8191822e-07 2.3360093e-07 1.0493058e-06)
(5.3960358e-06 -4.4716152e-07 6.8595271e-06)
(-5.9170582e-07 3.753468e-08 -1.6757667e-06)
(-9.4244907e-07 8.0451881e-08 -1.3670435e-06)
(1.3075194e-05 9.6893658e-07 2.2781699e-05)
(9.4251542e-07 1.3082005e-07 1.2196057e-06)
(8.2928715e-06 1.6683441e-06 1.1882717e-05)
(1.0342444e-05 2.7825671e-06 1.7519e-05)
(-7.3945903e-07 -1.3691183e-07 -1.3153828e-06)
(8.5875919e-06 1.5418805e-06 1.2507223e-05)
(4.5626698e-06 -8.2588359e-07 5.7690583e-06)
(-9.1091943e-07 -1.2618483e-08 -1.260333e-06)
(8.7251062e-07 -1.7673684e-08 1.3843046e-06)
(9.945719e-07 -1.2649914e-07 9.8893877e-07)
(3.1294759e-06 -3.8869941e-08 5.2250035e-06)
(6.8623467e-07 -1.1216177e-08 1.0186792e-06)
(6.3163887e-07 4.4899072e-08 1.1733845e-06)
(7.8073658e-06 -1.8036235e-06 4.0984321e-06)
(1.3040756e-05 -6.3685935e-06 1.1248101e-05)
(1.2189743e-05 5.5573335e-06 1.1874276e-05)
(1.2435921e-05 1.2214786e-06 1.9330013e-05)
(9.9392223e-07 2.1021608e-07 1.5606065e-06)
(1.2927823e-05 -3.4118902e-06 2.1561805e-05)
(1.3623235e-06 -7.2340972e-07 2.7926869e-06)
(3.3430017e-06 7.3059129e-08 6.1045754e-06)
(8.6440532e-07 -2.7401841e-07 7.8051966e-07)
(4.7342996e-06 1.0754446e-06 6.5436625e-06)
(3.8163325e-06 1.8013456e-08 6.1406276e-06)
(2.9011734e-06 2.7370224e-07 5.9453327e-06)
(9.1542071e-07 -2.9740103e-07 4.2548378e-07)
(3.4964283e-06 9.4507409e-07 7.0056173e-06)
(2.8574115e-06 7.6708825e-07 6.5154123e-06)
(5.2137349e-06 -1.1718679e-06 6.0842121e-06)
(8.0580563e-06 3.0767329e-06 1.4538071e-05)
(3.6658025e-06 -7.9723136e-08 5.5462882e-06)
(2.4942752e-06 -2.577617e-07 5.751136e-06)
(3.9425429e-06 8.4282111e-08 6.3100415e-06)
(4.4603334e-06 1.122955e-07 6.513389e-06)
(3.639445e-06 -1.1485617e-07 6.2570516e-06)
(1.5406871e-05 3.265495e-07 2.1254012e-05)
(4.2028177e-06 2.3712563e-07 6.2136584e-06)
(4.304115e-06 3.7444319e-07 6.0486448e-06)
(4.098864e-06 2.1371693e-07 6.6273196e-06)
(3.5949212e-06 2.3052561e-07 5.4791105e-06)
(3.7889469e-06 -4.6851461e-08 7.0352322e-06)
(1.0371913e-05 1.4279609e-06 1.3155727e-05)
(4.6214514e-06 4.007418e-07 4.7958031e-06)
(2.0717178e-06 -7.2383729e-07 3.2302686e-06)
(3.0416315e-06 7.8826429e-07 4.8534991e-06)
(-5.8696378e-07 2.1029991e-07 -1.1021857e-06)
(3.4842625e-06 -2.6759289e-07 6.5676372e-06)
(3.2884979e-06 2.8343038e-07 6.5937548e-06)
(1.0645113e-05 3.0787816e-06 1.9242861e-05)
(3.5021316e-06 -7.7564193e-09 6.0315627e-06)
(4.7037069e-06 -2.2825775e-08 6.7539366e-06)
(1.8601917e-06 -2.9271505e-07 5.8030876e-06)
(4.6368794e-06 -2.429123e-08 6.8413323e-06)
(1.4080245e-06 -2.845076e-07 2.1965535e-06)
(2.2866139e-06 -4.6899596e-07 7.5941368e-06)
(9.2741126e-06 1.1886778e-06 1.2792243e-05)
(7.7869721e-07 -3.9055757e-08 1.0595175e-06)
(3.5939962e-06 1.0604577e-07 5.6017647e-06)
(3.1891912e-06 1.7287425e-07 6.5423295e-06)
(5.2738635e-06 4.226309e-08 5.4499067e-06)
(5.0782343e-06 -8.609951e-09 6.2829615e-06)
(2.3317534e-06 2.4554087e-07 2.7176706e-06)
(1.8022861e-06 3.6860282e-07 3.00539e-06)
(5.4287169e-06 -1.6810403e-07 6.7399381e-06)
(4.2725145e-06 2.0289873e-08 5.9269445e-06)
(3.2928174e-07 4.6283242e-07 3.0648588e-07)
(6.5571357e-07 -6.1597045e-07 2.4831369e-07)
(3.7705002e-06 -2.911893e-07 5.7909958e-06)
(1.0683987e-05 1.122508e-06 1.4742656e-05)
(1.0938275e-05 5.1956111e-07 1.3057195e-05)
(2.4421907e-06 9.6418671e-07 3.0195768e-06)
(4.1252643e-06 4.3417181e-07 5.8519572e-06)
(3.8759361e-06 2.5426081e-07 7.3898725e-06)
(1.7448659e-06 8.5593442e-08 2.3792374e-06)
(1.8643519e-06 3.4306394e-07 2.2838463e-06)
(1.6593389e-05 -7.8026217e-07 1.9200989e-05)
(1.179714e-05 -2.6436457e-06 1.785461e-05)
(1.5044294e-06 -5.9890601e-08 1.7900427e-06)
(3.0530158e-06 -9.0924305e-07 6.2695434e-06)
(8.388431e-07 -9.6230973e-08 1.010459e-06)
(8.4358107e-07 -3.1726627e-07 1.3232392e-06)
(1.1132591e-06 -2.8144602e-08 1.3568606e-06)
(1.0410925e-05 2.3452761e-06 1.4577081e-05)
(1.7281599e-06 -2.8554114e-07 2.4746984e-06)
(9.9607597e-07 -7.9471558e-08 1.3405951e-06)
(9.5454443e-06 1.0195037e-06 1.3252245e-05)
(2.9033731e-06 -3.4740598e-07 1.4551337e-06)
(9.0672445e-07 -5.2701915e-07 2.0707157e-06)
(8.5967252e-06 1.0892914e-06 1.1985965e-05)
(1.588508e-06 3.2406948e-07 8.9044912e-07)
(3.0249797e-06 -6.2181695e-08 4.3986322e-06)
(9.7428061e-07 -2.768386e-07 1.7279885e-06)
(4.8380475e-06 1.2915195e-07 6.1767109e-06)
(9.2790443e-07 -4.5449154e-07 2.3413992e-06)
(1.1286452e-06 7.4939652e-08 2.8178771e-07)
(3.3168896e-06 2.2229216e-07 4.7850467e-06)
(1.812951e-06 2.8338426e-07 2.5961768e-06)
(4.0031323e-06 -6.3876852e-07 7.2148762e-06)
(1.4567224e-06 -3.7115781e-07 1.967803e-06)
(1.1739865e-06 7.6742426e-07 2.3324938e-06)
(1.4929279e-06 -2.8706026e-07 1.9337009e-06)
(4.1208345e-06 -1.1689212e-07 6.4570224e-06)
(1.3250768e-06 -5.9271822e-07 2.1462039e-06)
(1.1474582e-06 2.8098172e-07 1.9163586e-06)
(1.2025858e-05 1.704711e-06 1.7394368e-05)
(1.3974301e-05 1.7311409e-06 2.0431923e-05)
(1.4017771e-05 1.3233978e-06 2.0141446e-05)
(1.3984031e-05 2.4796203e-07 2.0336828e-05)
(3.2340976e-06 4.8809853e-07 5.9302012e-06)
(4.2559508e-07 2.3848315e-07 1.5780237e-06)
(1.571008e-05 3.2993361e-08 1.9057351e-05)
(9.8076196e-07 -5.096247e-08 1.2011105e-06)
(1.0442302e-05 1.7571986e-06 1.8287502e-05)
(4.4141316e-06 -4.8917895e-07 7.5908986e-06)
(1.0044142e-05 5.9343186e-07 1.9595044e-05)
(1.0100819e-06 -6.7160349e-08 1.2389693e-06)
(1.3282607e-05 1.0707342e-06 1.7758961e-05)
(1.0438157e-05 3.3808784e-06 9.4601969e-06)
(1.3079959e-05 8.0392698e-07 1.64152e-05)
(5.4878726e-06 -2.2592048e-07 6.3729682e-06)
(1.4218985e-05 -1.1537218e-06 1.7081958e-05)
(1.317051e-05 3.8070197e-07 1.7272993e-05)
(7.5748889e-06 1.6403977e-06 1.2188628e-05)
(1.0044803e-05 7.7854991e-07 1.6712254e-05)
(8.1322738e-07 -3.1186849e-08 9.2710827e-07)
(1.4824075e-05 2.0868975e-06 1.8005031e-05)
(2.6122198e-06 -2.1533363e-07 7.5466055e-06)
(5.1769267e-07 2.2179619e-07 1.3429878e-06)
(1.343176e-05 1.1592026e-07 1.7787056e-05)
(1.0055112e-05 1.1602854e-06 1.6510065e-05)
(3.1836846e-06 -5.7461852e-07 6.6716054e-06)
(1.0119927e-05 1.4697249e-06 1.6965558e-05)
(1.3518775e-05 1.9609704e-06 1.7742054e-05)
(1.2270951e-05 2.4793455e-07 1.4872756e-05)
(9.7593162e-06 9.2920722e-07 1.8000458e-05)
(8.407007e-06 -4.5421751e-07 1.6925103e-05)
(8.9285486e-06 7.3506969e-07 1.4637113e-05)
(1.8965188e-06 3.9163784e-07 2.46156e-06)
(7.8215335e-06 5.5545841e-07 1.6201938e-05)
(1.7797542e-06 -5.3703809e-07 2.9653153e-06)
(1.0751428e-05 8.7780473e-07 2.156351e-05)
(8.1776553e-06 1.8113509e-06 1.2984773e-05)
(1.1368949e-05 4.3644621e-06 1.0840491e-05)
(9.9839373e-06 1.5201816e-06 1.4892872e-05)
(7.7493352e-06 5.7711325e-07 1.670364e-05)
(1.0107928e-06 -8.3831676e-07 5.2282156e-07)
(1.809479e-06 -5.2180209e-07 5.8082424e-06)
(1.0019524e-05 1.2538166e-06 1.6508952e-05)
(1.0441547e-05 9.0050385e-07 1.5774027e-05)
(9.8381634e-06 6.3971054e-07 1.4354196e-05)
(1.0594806e-05 1.161692e-06 1.5713943e-05)
(7.955166e-06 1.0058983e-06 1.5017281e-05)
(3.8624945e-06 2.6091049e-07 5.7833089e-06)
(1.1253948e-06 -3.1426807e-07 4.0644671e-07)
(1.4080231e-05 -3.0722409e-07 2.0404653e-05)
(9.9081084e-06 4.7189839e-07 1.8161057e-05)
(8.6518849e-06 1.6615171e-06 1.2737836e-05)
(8.3241598e-07 -4.206611e-07 5.5735837e-07)
(6.3704039e-06 2.1591507e-06 1.6994382e-05)
(2.1576213e-06 -5.4039952e-08 2.4961376e-06)
(6.996343e-06 1.4269981e-06 1.3478175e-05)
(9.7875264e-06 6.9921963e-07 1.7003699e-05)
(2.426428e-06 -6.739857e-07 3.1334797e-06)
(1.4716193e-05 -9.7125402e-07 1.8978336e-05)
(8.4272929e-06 7.276303e-07 1.7204657e-05)
(6.1736539e-07 -7.8019694e-08 1.0901311e-06)
(6.4815591e-07 -4.8469943e-07 1.7964324e-06)
(1.2440313e-05 2.8566645e-06 1.0794818e-05)
(2.4711683e-06 2.0101615e-07 2.9941395e-06)
(8.8019594e-06 9.5689548e-07 1.5278115e-05)
(4.9208437e-06 -1.8656469e-07 6.7585455e-06)
(1.1430632e-06 -1.7562326e-07 1.5879504e-06)
(7.8437586e-06 1.7932573e-06 1.2116151e-05)
(5.3106462e-07 4.3433486e-08 9.3911738e-07)
(2.0737648e-06 -1.0180942e-06 3.6508372e-06)
(1.3383689e-05 1.0344165e-06 1.5226131e-05)
(1.2470262e-05 6.839815e-07 1.2359474e-05)
(1.3178237e-06 -1.3844375e-08 1.732702e-06)
(8.3532911e-06 1.456845e-06 1.3524544e-05)
(8.9591415e-06 7.1788704e-07 1.3738252e-05)
(9.7599373e-06 1.1035118e-06 1.1275853e-05)
(1.2360626e-05 1.584741e-06 1.0426006e-05)
(1.5206029e-05 4.1577785e-06 1.5086384e-05)
(8.8158407e-06 -5.0865079e-07 1.7812562e-05)
(7.6984981e-06 1.1072933e-06 1.2024964e-05)
(5.370783e-06 1.4007964e-06 1.1620073e-05)
(3.2569659e-06 -6.0649081e-08 5.5868664e-06)
(1.2133565e-05 3.8461752e-06 1.2189709e-05)
(7.5576475e-06 -7.3495272e-07 1.7540971e-05)
(3.9066277e-06 2.0043269e-08 6.9366927e-06)
(3.9347234e-06 -2.0335212e-07 7.2931623e-06)
(1.1949035e-05 3.6604424e-07 1.5695698e-05)
(1.0500501e-05 1.8439659e-06 1.7043915e-05)
(1.1341365e-05 5.3100971e-07 1.2745434e-05)
(8.8505027e-06 7.8122122e-07 1.4968205e-05)
(7.3897393e-06 1.5028611e-06 1.2519004e-05)
(1.929866e-06 1.4568732e-07 1.7528e-06)
(1.0001832e-05 6.5931186e-07 1.5592381e-05)
(7.5203941e-06 4.2692441e-07 1.5084785e-05)
(4.3309914e-06 -3.0901641e-07 7.4626101e-06)
(8.5117398e-06 9.2489266e-07 1.3094993e-05)
(9.7068157e-06 3.1107302e-06 9.8644513e-06)
(9.8204562e-06 1.1733762e-06 1.5411234e-05)
(9.2363057e-07 4.8909298e-08 1.2157588e-06)
(9.8960431e-06 9.0033212e-07 1.7079643e-05)
(1.1255926e-05 1.5485289e-06 1.6879195e-05)
(3.1690715e-06 -5.2661071e-07 6.3624433e-06)
(7.8139146e-07 2.2064566e-07 1.7314659e-06)
(1.7126571e-06 -6.5693064e-10 1.8694958e-06)
(5.2309814e-07 2.4976144e-07 1.5615642e-06)
(9.5984335e-06 3.7926599e-07 1.0700368e-05)
(4.3362102e-06 -3.6534652e-07 6.8952181e-06)
(-5.7153389e-07 2.0063665e-07 -1.3725684e-06)
(7.7465915e-07 4.9193825e-08 1.0347822e-06)
(1.4276923e-06 2.0105736e-08 1.9118141e-06)
(9.756309e-06 1.6122113e-06 8.8587069e-06)
(5.9849572e-07 -2.9521205e-08 9.809473e-07)
(1.1938349e-06 -1.5109915e-07 1.3666259e-06)
(1.5589653e-06 -4.647858e-07 2.3177018e-06)
(1.7324007e-06 -6.0155853e-07 2.8862946e-06)
(1.5625592e-06 -3.6668922e-07 2.1048385e-06)
(1.9829145e-06 2.0405085e-07 2.2805793e-06)
(1.6878799e-06 -3.7021216e-07 2.3999828e-06)
(2.050164e-06 4.1139466e-07 1.9577608e-06)
(1.0560982e-05 -5.9839435e-07 8.2179318e-06)
(1.6181182e-06 -4.1887078e-07 2.2894926e-06)
(1.3528676e-05 5.9712758e-07 1.7157898e-05)
(1.9600023e-06 -3.0086736e-08 2.0687995e-06)
(1.6134345e-06 -1.2792532e-07 2.0132926e-06)
(1.791709e-06 -4.4971769e-07 2.3172752e-06)
(7.3464129e-06 3.6344033e-07 1.3132248e-05)
(2.0743477e-06 -6.3634134e-07 3.1602055e-06)
(8.0602727e-06 -1.9047442e-09 1.6093823e-05)
(9.452728e-06 -4.4807551e-06 1.020105e-05)
(1.0851995e-05 4.9645164e-07 1.7494373e-05)
(1.5996926e-06 1.2044925e-07 1.4627567e-06)
(4.0588271e-06 -2.9813694e-07 6.5070884e-06)
(6.9387949e-06 -1.8981471e-08 1.5132133e-05)
(6.0149271e-07 -1.2595947e-07 1.5071167e-06)
(3.4808127e-06 6.1646539e-07 5.8859584e-06)
(1.0914409e-05 -2.7846545e-07 1.7177874e-05)
(3.4442829e-06 -2.7019913e-07 5.6214804e-06)
(2.4943362e-06 6.2979867e-07 2.0916894e-06)
(3.8476866e-06 4.2033324e-07 6.8484224e-06)
(3.3670028e-06 -7.3692568e-09 5.1871011e-06)
(4.3895662e-07 1.4743317e-07 9.9711202e-07)
(7.2224446e-07 -1.7879859e-08 9.3062685e-07)
(2.0939465e-06 5.4251877e-07 1.1023161e-06)
(9.6129403e-06 5.0267928e-07 1.6785483e-05)
(-1.1518272e-08 -1.441372e-07 -1.5799385e-07)
(6.4074705e-07 -3.5586432e-07 1.463254e-07)
(9.8550136e-06 6.2284253e-07 1.3435265e-05)
(3.8171063e-06 -4.6593045e-07 6.3309188e-06)
(6.6966438e-06 1.7542626e-06 1.1407111e-05)
(6.4760968e-07 3.598419e-08 9.7930863e-07)
(1.050539e-06 -2.2988831e-07 1.7445098e-06)
(5.3782707e-07 3.5356047e-07 1.5545074e-06)
(1.1519529e-06 -3.6920961e-07 1.9926514e-06)
(1.0343344e-06 4.7341231e-08 1.4345949e-06)
(1.05237e-06 1.8217552e-07 1.0608122e-06)
(1.0012753e-06 -1.0777741e-08 1.2011492e-06)
(8.5466401e-07 -5.5626047e-08 1.3371987e-06)
(1.1977805e-05 1.6629915e-07 1.4937496e-05)
(1.3587437e-06 6.7336836e-08 1.5257365e-06)
(8.0978588e-07 3.7094542e-07 1.4668846e-06)
(1.0315077e-06 1.2841009e-07 1.0502884e-06)
(8.0437596e-07 1.4868721e-08 7.7799724e-07)
(4.0915963e-07 1.3404896e-07 1.0435588e-06)
(5.966137e-07 7.5584432e-08 8.4806204e-07)
(4.2549291e-06 -1.159563e-07 6.854395e-06)
(-6.0246057e-07 2.0618549e-07 -1.17815e-06)
(6.2144996e-06 1.1540791e-06 1.205591e-05)
(8.3287884e-06 3.0196963e-07 1.2087617e-05)
(-1.1476666e-06 1.491054e-08 -1.2909221e-06)
(1.4750491e-06 -6.5670643e-07 2.4728047e-06)
(1.4790037e-06 -4.5802946e-08 7.1537937e-07)
(1.2964915e-05 6.7950247e-07 9.0192056e-06)
(1.4075286e-06 -9.766059e-08 6.2534993e-07)
(1.1785245e-06 -6.7490525e-07 2.6252966e-06)
(1.0386793e-05 2.7006576e-06 9.7745503e-06)
(1.2940031e-06 -3.7427808e-08 1.7139808e-06)
(1.4559984e-06 -3.2292709e-07 9.7429828e-07)
(1.6281016e-06 -5.5947118e-07 8.9175358e-07)
(5.7407299e-07 -2.2781312e-07 1.4401959e-06)
(3.0561927e-06 2.2264139e-07 5.5937407e-06)
(1.0472235e-05 2.9291028e-06 8.8208447e-06)
(1.2363444e-05 3.3596441e-06 1.0702468e-05)
(1.574951e-06 2.8782152e-07 2.1708742e-06)
(1.765126e-06 9.0310755e-08 2.4006123e-06)
(9.8550165e-06 2.0174878e-06 8.5859749e-06)
(3.8727365e-06 -1.9778123e-07 5.9206674e-06)
(3.4101289e-06 -2.7515929e-09 6.7231462e-06)
(1.4695503e-06 1.5283233e-07 1.4024453e-06)
(1.1143036e-05 -3.1416245e-06 1.0279367e-05)
(1.5306373e-06 -1.2731673e-07 1.8046872e-06)
(1.4354289e-05 1.5413383e-06 1.0720235e-05)
(1.1216695e-06 -7.3806223e-08 1.4982899e-06)
(1.3803564e-06 -7.6811682e-07 8.0960947e-07)
(9.9340613e-07 -6.5226885e-07 3.7336777e-07)
(1.3399143e-06 5.5076465e-07 2.0119309e-06)
(1.3000501e-06 -3.1169032e-09 1.5519302e-06)
(4.8051509e-06 7.1476065e-07 5.8516094e-06)
(4.4897121e-07 1.5533257e-07 1.2332419e-06)
(7.7319839e-06 2.5652514e-06 8.9120828e-06)
(1.3895499e-06 1.1894051e-07 2.0352257e-06)
(1.5533694e-06 1.8028491e-07 1.8382118e-06)
(1.0511627e-05 2.2364484e-07 9.0591607e-06)
(1.7462452e-06 -1.2603652e-07 1.8267907e-06)
(6.9223945e-07 1.4286693e-09 9.0858563e-07)
(8.0926957e-06 3.0013031e-06 9.4049985e-06)
(1.2669658e-06 -1.7181188e-07 1.9117112e-06)
(1.6047617e-06 3.5955139e-07 2.1458968e-06)
(2.1727789e-06 -1.1358713e-07 2.2223152e-06)
(1.1776273e-07 -1.6969492e-07 1.375524e-07)
(-4.9577153e-07 2.9597706e-07 -9.679372e-07)
(1.3231376e-05 3.0646107e-06 1.0940436e-05)
(7.8260525e-06 9.4229251e-07 1.0900529e-05)
(2.63224e-06 -9.2779266e-07 6.3013488e-06)
(7.6171046e-06 1.4896546e-06 1.2085732e-05)
(1.1561274e-06 -4.0010855e-07 1.742964e-06)
(1.1208906e-06 -2.2775542e-07 5.4956985e-08)
(1.2943026e-06 2.5465535e-08 1.4276251e-06)
(4.9273816e-07 5.4016882e-08 9.1836573e-07)
(1.4443943e-06 5.9706866e-08 1.4545921e-06)
(9.7083036e-07 -3.0849626e-07 1.6121829e-06)
(9.8807205e-07 -4.0529634e-07 1.9661521e-06)
(6.5777256e-07 -4.8345421e-07 1.1322864e-07)
(8.358963e-07 -4.4429393e-07 1.7530454e-06)
(7.0753967e-07 -5.1043584e-07 1.580152e-06)
(1.1075534e-06 -1.3086073e-07 1.3833895e-06)
(1.1281019e-06 -1.3277091e-07 1.5270989e-06)
(1.7083854e-06 2.2924113e-08 1.6360958e-06)
(9.6733307e-07 -1.8534522e-09 1.2578085e-06)
(9.000039e-07 -2.7558091e-07 1.2043738e-06)
(8.7110636e-07 -1.6338744e-07 1.3932086e-06)
(7.8769565e-07 -1.7848975e-07 1.2904097e-06)
(1.4023008e-06 9.986922e-08 1.8696874e-06)
(2.8207175e-06 1.7827324e-06 1.2256215e-06)
(-2.9142532e-07 -8.7394023e-08 -4.9884684e-07)
(2.3477498e-06 -4.6938558e-07 7.035164e-07)
(1.5172686e-06 3.7274344e-07 9.0438034e-07)
(1.1045178e-06 3.3744989e-07 4.6032671e-07)
(1.5439119e-06 5.7618357e-07 8.9007503e-07)
(1.0165295e-05 1.8693137e-06 8.5429836e-06)
(1.040073e-05 -2.6813015e-07 8.7083122e-06)
(8.2040839e-06 1.8845992e-06 7.8056047e-06)
(1.1213038e-05 4.8476295e-08 9.3460396e-06)
(8.3290353e-06 1.011929e-06 6.2197326e-06)
(9.0440881e-06 2.4773416e-06 8.9795314e-06)
(1.0053028e-05 -3.1045872e-07 7.1171642e-06)
(8.9224039e-06 4.6982615e-07 6.2215937e-06)
(9.1353929e-06 1.2575815e-06 6.8887145e-06)
(8.1238531e-06 1.6464153e-06 7.4566411e-06)
(8.2049294e-06 2.1709455e-06 6.9662095e-06)
(7.1653058e-06 2.4752612e-06 6.2837184e-06)
(7.5919905e-06 1.2438371e-06 5.7331532e-06)
(9.6809385e-06 -3.6736629e-07 6.5176788e-06)
(6.9187576e-06 2.0909514e-06 5.7994278e-06)
(8.9860614e-06 -8.5299299e-07 6.3455305e-06)
(7.6038879e-06 -5.9098987e-07 5.405423e-06)
(8.087789e-06 2.4256282e-07 6.7010048e-06)
(7.4359945e-06 6.0331083e-07 5.7433565e-06)
(7.9847857e-06 1.1033049e-06 6.0927822e-06)
(1.0965894e-05 9.3449199e-07 7.6704394e-06)
(9.0320888e-06 3.2316432e-06 7.9629814e-06)
(6.3898059e-06 2.7177694e-06 6.2402262e-06)
(6.5938346e-06 1.2767598e-06 5.3468202e-06)
(8.621632e-06 -4.7360035e-07 7.7418515e-06)
(9.3367798e-06 3.2362407e-06 7.0477039e-06)
(7.0761062e-06 -5.8120433e-07 5.7100142e-06)
(7.6650815e-06 6.5736173e-07 6.9339701e-06)
(6.3893867e-06 1.2013302e-06 4.8585536e-06)
(6.4441287e-06 6.5984556e-07 4.646766e-06)
(6.0339561e-06 9.999931e-07 5.9703194e-06)
(1.1815383e-05 2.1399507e-06 9.1705641e-06)
(6.850784e-06 9.3854151e-07 5.0238638e-06)
(7.4606962e-06 -6.294708e-07 6.2202998e-06)
(6.0344285e-06 5.9995632e-07 4.0502586e-06)
(6.6492057e-06 -1.0866426e-06 4.5203431e-06)
(9.7861563e-06 3.9642895e-06 8.1616819e-06)
(5.7847991e-06 9.1184782e-07 3.9071452e-06)
(8.14064e-06 1.4450638e-06 5.3325403e-06)
(8.8058954e-06 8.0963406e-07 5.5595692e-06)
(7.5992789e-06 -5.4506265e-07 5.1183629e-06)
(1.0553511e-05 3.4610106e-07 7.1368821e-06)
(7.0057613e-06 8.552464e-07 4.4312883e-06)
(7.7732826e-06 3.2176618e-06 4.9026294e-06)
(9.3002392e-06 2.6238795e-06 6.2074246e-06)
(1.0963759e-05 1.2305886e-06 8.6035228e-06)
(9.7265608e-06 2.6810061e-06 8.1352447e-06)
(8.2298082e-06 7.9525283e-07 6.2574719e-06)
(8.8816996e-06 4.3201527e-07 5.2504937e-06)
(6.5852556e-06 1.5312039e-06 5.486592e-06)
(1.0918985e-05 2.0846495e-06 7.7041647e-06)
(6.0158268e-06 -1.770631e-07 5.7253247e-06)
(9.3948084e-06 2.2641297e-06 5.6294335e-06)
(6.3613008e-06 2.4125184e-06 7.2346488e-06)
(5.9885701e-06 7.574097e-07 5.8161068e-06)
(7.826732e-06 3.3359438e-06 4.7845248e-06)
(8.3882083e-06 -1.9393692e-06 4.5936466e-06)
(8.8535759e-06 1.0379766e-06 5.0034612e-06)
(6.5252967e-06 4.0425985e-08 3.6503026e-06)
(7.9080217e-06 1.4034875e-06 5.0240362e-06)
(9.3505427e-06 1.6978041e-07 5.9087146e-06)
(7.9659115e-06 2.6133882e-08 4.8661793e-06)
(6.1584e-06 2.6314333e-06 4.2334297e-06)
(5.8722615e-06 -1.7290159e-07 4.2717136e-06)
(6.4526687e-06 1.9717338e-07 3.4583197e-06)
(8.6897353e-06 -2.1803491e-06 5.1144604e-06)
(5.9675668e-06 7.0419996e-07 5.3307231e-06)
(5.8520525e-06 1.0363916e-06 5.494535e-06)
(1.1377734e-05 1.7450184e-06 8.0274874e-06)
(6.247013e-06 3.3819523e-07 4.0376671e-06)
(9.9286758e-06 3.2322823e-06 7.4388989e-06)
(6.7802933e-06 -1.8303226e-08 4.119519e-06)
(7.0883682e-06 -8.8131391e-07 3.7576544e-06)
(6.7708166e-06 -4.4831704e-07 5.7037759e-06)
(-5.9946767e-07 1.806122e-07 -8.1380385e-07)
(6.1206837e-06 -1.3971532e-06 2.9643313e-06)
(-7.1109709e-07 1.9710336e-07 -1.221157e-06)
(7.4251708e-06 -1.3034403e-10 4.9341847e-06)
(1.1776844e-05 8.8017132e-08 7.7927846e-06)
(-3.8978924e-07 2.8207682e-07 -1.2812089e-06)
(8.8612267e-06 2.2931446e-07 4.5100089e-06)
(1.1159426e-05 3.9964466e-06 8.4417094e-06)
(8.2453047e-06 1.721824e-06 4.8247891e-06)
(1.3717941e-05 5.5533244e-06 1.1942579e-05)
(6.0828505e-06 4.5570313e-07 5.4180332e-06)
(1.4696389e-05 2.3183168e-06 8.9703297e-06)
(8.2320919e-06 4.759597e-07 5.1301835e-06)
(8.4295513e-06 3.6825939e-06 6.6395008e-06)
(6.1291779e-06 1.2674329e-07 3.9446932e-06)
(6.0748261e-06 -1.6260969e-06 3.6857893e-06)
(6.347359e-06 5.7764452e-07 3.6443637e-06)
(7.8681833e-06 2.876883e-06 4.2033634e-06)
(9.8652474e-06 3.5702484e-06 7.7056783e-06)
(3.3807315e-06 1.1629446e-07 5.1877209e-06)
(5.2629628e-06 -7.8435595e-07 2.207844e-06)
(3.2489071e-06 -2.906466e-09 5.0527615e-06)
(-8.5328939e-07 1.2075743e-07 -1.2128797e-06)
(1.2073274e-05 4.193618e-06 9.6833764e-06)
(1.109415e-05 9.65482e-07 7.5566409e-06)
(5.8322668e-06 -7.8405301e-07 3.5716717e-06)
(5.5066336e-06 7.2069185e-07 2.5084579e-06)
(6.2980266e-06 4.7502087e-07 3.8563821e-06)
(6.3263548e-06 -9.7610949e-07 3.4414072e-06)
(5.1907899e-06 7.0100454e-07 2.2744846e-06)
(8.2955714e-06 3.5425619e-07 4.4694944e-06)
(4.7753978e-06 3.2741835e-07 1.814358e-06)
(7.0832939e-06 1.5199863e-06 4.0740862e-06)
(2.9676955e-07 -1.4349736e-07 3.4812614e-08)
(7.7515722e-06 -1.4393532e-06 4.5604179e-06)
(4.4947349e-06 -1.1521698e-06 2.2091191e-06)
(5.9947814e-06 -1.094366e-06 3.0260298e-06)
(3.3045766e-06 -7.4156724e-09 4.6374755e-06)
(5.0525112e-06 -1.2779198e-07 2.8517472e-06)
(4.8292785e-06 -1.5792996e-06 2.2796563e-06)
(9.9550546e-06 5.4375233e-08 5.4940527e-06)
(6.9971683e-06 1.0176715e-06 3.6667137e-06)
(8.4201688e-06 1.3103836e-06 4.480838e-06)
(7.3248537e-06 7.1546398e-08 3.7147551e-06)
(5.4348568e-06 -3.0662493e-07 2.2742761e-06)
(6.00331e-06 6.4886442e-08 2.7903116e-06)
(3.9771061e-06 -1.1765271e-06 1.7946209e-06)
(4.4245387e-06 -3.2779262e-07 1.8871937e-06)
(5.2606977e-06 1.3441497e-06 2.8164714e-06)
(4.5048781e-06 -1.1692936e-06 2.0065773e-06)
(5.7346973e-06 -1.3530318e-06 2.230068e-06)
(4.9592115e-06 -3.2760283e-07 2.0293473e-06)
(4.4269646e-06 8.54119e-08 1.9441016e-06)
(3.9828008e-06 8.3724283e-08 2.0413488e-06)
(4.5675108e-06 -9.8538294e-07 2.133253e-06)
(7.5024766e-06 7.6667779e-07 4.8364396e-06)
(3.9413261e-06 -1.0631259e-07 1.7759214e-06)
(4.3471294e-06 -1.2334425e-06 2.0411932e-06)
(4.7919518e-06 -1.9119105e-07 2.8168e-06)
(-4.6616334e-07 1.5293992e-07 -8.0690818e-07)
(3.4241019e-06 -6.009746e-07 1.9046627e-06)
(3.5059648e-06 -1.0760084e-06 1.7798269e-06)
(1.1255861e-05 -3.5172217e-06 9.0110449e-06)
(3.459035e-06 -1.2120238e-06 1.1819916e-06)
(3.8027353e-06 -1.2318587e-06 1.4398426e-06)
(3.5243191e-06 -8.5615072e-07 1.5770117e-06)
(4.4832153e-06 -1.2585273e-06 1.3122165e-06)
(3.9287186e-06 3.5034536e-08 1.0895e-06)
(-8.5242255e-07 -5.7869203e-08 -1.253383e-06)
(3.4330691e-06 -9.570158e-08 1.014037e-06)
(3.6601866e-06 1.0546685e-07 1.234382e-06)
(-7.0858485e-07 8.5248342e-08 -1.3219208e-06)