/*--------------------------------*- C++ -*----------------------------------*\
  =========                 |
  \\      /  F ield         | OpenFOAM: The Open Source CFD Toolbox
   \\    /   O peration     | Website:  https://openfoam.org
    \\  /    A nd           | Version:  11
     \\/     M anipulation  |
\*---------------------------------------------------------------------------*/
FoamFile
{
    format      ascii;
    class       volVectorField;
    location    "10000";
    object      wallShearStress;
}
// * * * * * * * * * * * * * * * * * * * * * * * * * * * * * * * * * * * * * //

dimensions      [0 2 -2 0 0 0 0];

internalField   uniform (0 0 0);

boundaryField
{
    wall-fluid_domain
    {
        type            calculated;
        value           nonuniform List<vector> 
33501
(
(0.00027967777 5.6388029e-05 0.00041563303)
(0.00017049138 5.6132284e-06 0.00028111816)
(0.00023115407 8.9325908e-07 0.00038817861)
(0.00012480469 -1.5039576e-05 0.00014688924)
(7.150598e-05 -7.3305494e-06 0.00020196547)
(0.00018433887 -2.429437e-06 0.00027959012)
(0.00018682344 -1.1226249e-06 0.0002515243)
(0.00015523666 9.8856064e-06 0.00025068171)
(0.00017486293 -2.4186505e-05 0.00028037858)
(9.3138369e-06 -2.5865952e-05 1.8853618e-05)
(0.00014159594 -8.9563406e-06 0.00023150593)
(0.00021991301 1.5937858e-05 0.00033659573)
(0.00022384346 -3.7258589e-05 0.00036307883)
(0.00019708856 1.263811e-05 0.000321324)
(9.4069173e-05 -1.2114244e-05 0.00010520284)
(0.00019620862 4.4964403e-05 0.000267721)
(0.00028649106 5.4068495e-05 0.00038014716)
(0.00026574705 4.9011149e-05 0.00035118753)
(0.00018970319 3.5843434e-06 0.0002564177)
(7.8354553e-05 -2.8045271e-05 8.380521e-05)
(0.00024356534 5.1407171e-05 0.00031432972)
(0.00015986324 1.8560468e-06 0.00025432599)
(0.00022206061 -1.2275561e-05 0.00037632265)
(0.00019758394 -8.6103429e-06 0.00030234086)
(0.00028289273 5.5542982e-05 0.00037755726)
(0.00028298289 5.6890449e-05 0.00040058221)
(0.00016587127 3.6725798e-06 0.00026244299)
(0.00023512828 -8.8850132e-06 0.00035561985)
(5.1931909e-06 -3.7560861e-05 3.7051354e-05)
(0.00023821647 -1.4480835e-05 0.00037011345)
(0.00017338979 -3.9193844e-06 0.00027175306)
(0.00024173556 4.7210058e-05 0.00035843535)
(0.00017993244 -5.1875365e-06 0.0003037256)
(0.00025096829 4.7586175e-05 0.00034926989)
(0.00024462149 5.1040062e-05 0.00037360827)
(0.00027375345 4.5602466e-05 0.00041992613)
(0.00024587772 5.1885014e-05 0.00035870617)
(-1.5843969e-06 -4.137949e-05 5.875912e-05)
(-1.6922799e-05 2.1238764e-05 9.7561663e-05)
(0.00025985835 2.8204842e-05 0.00043907457)
(-1.5623367e-06 -3.3067808e-05 0.00012556184)
(0.00019522407 -7.1019536e-06 0.00030341675)
(0.00025724809 2.0961308e-05 0.00044191303)
(0.0002481815 -3.6863017e-05 0.0004247551)
(0.00025695393 -3.1829272e-05 0.00044037841)
(0.00022376296 1.0866001e-05 0.00034614199)
(0.00022600217 -7.525075e-06 0.00034921744)
(0.00016779968 8.4573651e-06 0.00022557435)
(0.00016135251 1.0003331e-05 0.00027138939)
(0.00027218402 4.6443497e-05 0.00043339788)
(0.00015138664 4.1494744e-06 0.00026059675)
(0.0002776707 3.7693505e-05 0.00043695054)
(0.00022171607 1.0735074e-06 0.00037952797)
(0.00029219952 1.1867625e-05 0.00052551944)
(0.00020491037 -5.6170559e-06 0.00031860651)
(0.00017441592 -3.596727e-06 0.00027543945)
(0.00018162224 -3.6948737e-06 0.00029117911)
(0.00026431762 6.0031263e-05 0.00033881228)
(0.00021015948 4.4300955e-05 0.00027981205)
(9.8904697e-07 -3.0831507e-05 2.287601e-05)
(0.00022590165 6.3093278e-06 0.00037429811)
(2.4963761e-05 -3.1036152e-05 3.2290863e-05)
(0.00022859566 -1.1357125e-05 0.00035530476)
(0.00021675707 -1.851406e-05 0.00033355319)
(9.2098026e-05 -1.6526912e-05 9.8000911e-05)
(0.00016877012 -3.4752945e-06 0.0002237787)
(0.00026280607 -4.1638955e-05 0.00043931322)
(0.00024338302 4.8072227e-05 0.00033703628)
(0.00023075824 -1.738642e-05 0.00036331155)
(0.00021577619 -1.1494996e-05 0.00036710137)
(0.0002089096 -1.0099419e-06 0.00033199705)
(-1.0823652e-05 -3.6567671e-05 5.0877632e-05)
(0.00019976745 -4.1806591e-05 0.0003280206)
(0.00028712088 5.2158588e-05 0.00042723789)
(0.00026433399 -2.8990344e-05 0.00044641015)
(0.0002075714 -6.3376531e-06 0.00032329398)
(0.00021130446 3.6000075e-05 0.00030012432)
(0.00028194429 1.2002758e-06 0.00050103259)
(0.00026527996 -2.5449039e-05 0.0004425811)
(0.00021121417 4.2602162e-05 0.00026930554)
(0.0003036979 5.7180783e-05 0.00039108354)
(0.00012698194 -1.6265711e-05 0.00014945318)
(0.00011984688 -1.5970361e-05 0.00013604338)
(0.00014432908 -1.0381426e-05 0.00017377319)
(0.00021457162 -3.1077055e-06 0.00033345568)
(0.00025551327 3.9752381e-05 0.00039802229)
(0.00021302874 -9.4072701e-06 0.00033173552)
(7.6050897e-05 -1.1670423e-05 0.00026975066)
(-1.5729914e-05 -3.6965498e-05 5.706778e-05)
(2.1380522e-05 -2.7683543e-05 2.2677661e-05)
(0.00019298985 -6.5584485e-06 0.00030143275)
(9.598433e-06 -2.4189529e-05 1.7862535e-05)
(0.000190976 -1.1134183e-05 0.00030373878)
(0.00011242739 5.9179476e-06 0.00023374626)
(0.00028613963 4.8758922e-05 0.00038454611)
(0.00032528759 5.133776e-05 0.00046126931)
(0.00029425263 5.0270612e-05 0.00044475281)
(0.000280223 3.9330552e-05 0.00046914722)
(0.00020698719 4.0871448e-05 0.00029400481)
(0.00021482871 -1.6078382e-05 0.00033682515)
(0.00021915197 -9.3293523e-06 0.00037324888)
(8.0926345e-05 -4.2364328e-05 9.1665808e-05)
(0.00012390138 -1.7426305e-05 0.00014408966)
(0.00030535969 5.8806986e-05 0.00038808847)
(0.00010557843 2.448215e-06 0.00023417311)
(0.0002388429 -1.1858053e-05 0.00039263846)
(0.00022897433 -1.0752711e-05 0.00037367048)
(0.0002342644 -1.0940618e-05 0.00037833399)
(0.0002842759 5.8565651e-05 0.00037701539)
(0.00032046175 5.224019e-05 0.00045881466)
(0.0002893782 5.2244685e-05 0.00036511391)
(0.00029430389 5.6779694e-05 0.00041728144)
(0.00030006563 5.1908275e-05 0.00041152849)
(0.0002130267 -1.6481255e-05 0.00034269034)
(0.00029584029 4.7942896e-05 0.00044292926)
(0.00025650006 4.1628532e-05 0.00037794355)
(0.00023276072 -1.1987516e-05 0.00037507566)
(-2.6207815e-05 -9.2575299e-06 1.4293051e-05)
(0.00022669681 -1.8999685e-06 0.00038502967)
(6.4080173e-05 -3.6119473e-05 6.8555222e-05)
(9.8549547e-05 -2.3956293e-06 0.00024620645)
(0.00023443279 4.5002604e-05 0.00032127503)
(0.00023515817 4.3543536e-05 0.00031109732)
(0.00024368699 -8.4514653e-06 0.00041636175)
(0.00028109579 4.9908875e-05 0.00039379362)
(0.00022632526 -6.5221995e-06 0.00037655117)
(0.00025666788 4.0834865e-05 0.00037631158)
(6.0714857e-05 -3.8091422e-05 6.4705578e-05)
(0.00024964812 4.0270599e-05 0.0003362267)
(8.5158458e-05 -1.8730683e-05 8.7341315e-05)
(0.0002945206 4.8281453e-05 0.00040142855)
(0.00027310874 5.181234e-05 0.00040017101)
(7.4614179e-05 -5.6037696e-06 0.00018846718)
(0.00010186364 -1.3423826e-06 0.00021716034)
(0.00028329159 4.6069121e-05 0.00044444296)
(0.00012554127 -1.5407341e-05 0.00013601161)
(-4.379559e-05 7.8212276e-06 -1.6449152e-05)
(0.00029135413 5.0726247e-05 0.00039459054)
(0.00024787756 4.7248474e-05 0.00032854865)
(2.0100352e-06 -3.4519768e-05 4.1657567e-05)
(0.00025101957 4.3161249e-05 0.00038912929)
(0.00023457567 3.9740675e-05 0.00033876559)
(0.00028133677 5.4503467e-05 0.00039582775)
(-2.6581234e-06 -3.4872206e-05 3.8884456e-05)
(0.00018160767 -4.2728586e-06 0.00031475382)
(0.00025096536 3.8621492e-05 0.00038781076)
(0.00022774983 4.3175372e-05 0.0003421777)
(0.00019095635 1.3258612e-05 0.00030120609)
(0.00025123206 3.9114976e-05 0.00037851777)
(0.0002026566 1.2591756e-05 0.00032626524)
(0.00022829586 -3.3620671e-05 0.00038011689)
(3.5214367e-06 -3.2720332e-05 2.8983714e-05)
(0.00022372568 -3.6014501e-05 0.00038070325)
(0.00026367657 3.8904373e-05 0.00042507481)
(0.00022364239 -9.8785738e-06 0.00036870255)
(3.2047503e-07 -3.5900043e-05 3.5658114e-05)
(0.00021436251 2.6219728e-06 0.00037111602)
(0.00024834743 4.7203442e-05 0.00031913142)
(3.2890302e-05 -3.3053393e-05 3.0017063e-05)
(0.00022698189 1.62604e-05 0.00037013865)
(2.6053572e-05 -3.3798516e-05 2.3348635e-05)
(5.8834032e-06 -2.8038484e-05 1.8826502e-05)
(0.00025753795 2.633639e-05 0.00044868344)
(0.00025602879 4.2644336e-05 0.00032057125)
(0.00022904872 -3.9474627e-07 0.00038438466)
(0.00026085128 -3.0903323e-05 0.00043384949)
(3.8702548e-05 -4.14837e-05 4.6421336e-05)
(0.00023286093 -1.2311182e-05 0.00037318212)
(-8.8514743e-07 -2.6538563e-05 1.4232814e-05)
(0.00022691375 6.4468697e-06 0.00037608322)
(-1.1876692e-05 -1.0672715e-05 -2.9111731e-05)
(-1.1347167e-05 -1.7851663e-05 -3.234652e-05)
(0.00029839255 2.3217925e-05 0.00052780343)
(4.976173e-06 -3.2858805e-05 2.3019067e-05)
(0.00025067386 4.1147875e-05 0.00038801303)
(0.00028251075 4.1271795e-05 0.0004638819)
(-1.801249e-05 -1.2226923e-05 -3.0422522e-05)
(0.00027856312 3.8679753e-05 0.00043772189)
(0.00019704866 1.3124478e-05 0.00030508143)
(-1.2180007e-05 -8.7362654e-06 -3.1531688e-05)
(2.5664483e-06 -4.1042954e-05 3.5173953e-05)
(5.4861118e-06 -3.4794895e-05 1.8428391e-05)
(0.00022011202 2.3850504e-06 0.00036952252)
(2.8912307e-06 -3.0452914e-05 1.2722556e-05)
(-1.422359e-06 -3.4151399e-05 2.5344517e-05)
(0.00014011321 -3.663622e-07 0.00022809231)
(0.00020496871 -3.4615984e-05 0.00031106881)
(0.00017794486 3.4620473e-05 0.00027285487)
(0.00027749322 1.1725201e-05 0.00049101311)
(2.227351e-06 -3.4885433e-05 2.7190471e-05)
(0.00026165636 -3.1863354e-05 0.00044846354)
(8.1581401e-05 -3.0749658e-05 8.7313098e-05)
(0.00018433585 -3.08457e-06 0.00031243843)
(4.9919691e-05 1.9015819e-05 0.0002029044)
(0.00023621921 -9.5374122e-06 0.00037812822)
(0.00021687692 6.2325438e-06 0.00036579172)
(0.00019547287 1.2262192e-05 0.00033103333)
(5.1909689e-05 1.9106186e-05 0.00021498263)
(0.00024391008 1.3284751e-05 0.00039122985)
(0.00018906399 1.3609443e-05 0.00030056028)
(0.00025548941 1.1918937e-05 0.00039840533)
(0.00025311168 4.2048157e-05 0.00040712657)
(0.00020510484 7.5115082e-06 0.00034279495)
(0.00021314338 4.2343334e-06 0.00036755269)
(0.00019572644 3.8247688e-07 0.00033942122)
(0.00020941484 -6.547244e-07 0.00035296629)
(0.00020183474 -2.4476542e-06 0.00034865332)
(0.00030047065 -6.9535054e-07 0.00052104891)
(0.00021139844 -3.6227415e-06 0.00035598147)
(0.0002030637 2.249219e-06 0.00034299673)
(0.00020546684 -5.2294552e-06 0.00035233694)
(0.00022811478 5.3261362e-06 0.00038997837)
(0.00021005263 5.8666663e-07 0.00036421886)
(0.00028431516 4.1722703e-05 0.00044610207)
(0.0002383715 5.1361049e-06 0.00039547507)
(0.00012945837 -2.3397637e-05 0.00015030942)
(0.00022719345 7.0321368e-06 0.00038491936)
(-1.1067492e-05 3.4207004e-06 -5.3495217e-05)
(0.0002089989 -3.7668954e-06 0.00036242302)
(0.00023133428 3.6684322e-06 0.00040133137)
(0.00027872575 4.0470991e-05 0.00046532267)
(0.00021052086 5.2402329e-06 0.00034758496)
(0.00021812777 1.1369157e-06 0.00036775685)
(0.00022887603 9.6223764e-06 0.0003946501)
(0.00021769277 -1.7481029e-06 0.00036870588)
(8.5801382e-05 -2.6691789e-05 8.4622803e-05)
(0.00021120083 -7.6630998e-06 0.00036586686)
(0.00026811857 3.6631755e-05 0.00043026203)
(6.7223211e-06 -3.3015813e-05 2.43178e-05)
(0.0002333302 4.0858099e-06 0.00039906248)
(0.00021398839 1.5420258e-05 0.00035514537)
(0.0002469556 3.7871313e-06 0.00040944634)
(0.00020988027 6.8204448e-06 0.00034961819)
(0.0001387183 -1.280889e-05 0.00015786021)
(-1.8293822e-05 -3.2622353e-05 6.3614773e-05)
(0.00021911357 -7.2682318e-06 0.00036982455)
(0.00020891662 7.344896e-06 0.00034772345)
(3.745124e-05 -1.5075399e-05 0.00017692092)
(4.253648e-05 2.2723232e-05 0.00020561171)
(0.00020630077 -1.1758931e-05 0.00033332955)
(0.00025318464 3.3973122e-05 0.0004052112)
(0.00028735665 4.0230736e-05 0.00045292166)
(0.00015814544 -1.6974306e-05 0.00017977742)
(0.00020121975 -7.8481085e-06 0.00031897374)
(0.00023568963 3.5313544e-06 0.00041125424)
(9.9492957e-05 -1.8849289e-05 0.00010514474)
(9.7557766e-05 -2.3642352e-05 0.00010363172)
(0.00030254488 -4.0288962e-05 0.00048543514)
(0.00030213948 -4.1629505e-05 0.00048182927)
(-3.1033641e-06 -3.534962e-05 3.1230058e-05)
(0.0001978105 -1.3812127e-05 0.00033341651)
(3.5960664e-05 -3.2831102e-05 2.886632e-05)
(3.9186808e-05 -3.7278334e-05 3.9918159e-05)
(3.612854e-05 -3.8554258e-05 4.0270359e-05)
(0.00028903154 4.2392784e-05 0.00046752999)
(0.00012077839 -2.5801534e-05 0.00013560507)
(4.7629578e-05 -3.9507148e-05 4.9909962e-05)
(0.00025723022 3.3569149e-05 0.0004259308)
(0.00010345256 -8.0917131e-06 0.00021933446)
(6.2636004e-05 -4.3896762e-05 6.6998275e-05)
(0.00026133321 3.1945956e-05 0.00042296902)
(6.8897356e-05 -7.8336707e-06 0.00018161949)
(0.0001673057 1.5012075e-06 0.00027192492)
(5.5601459e-05 -3.2786255e-05 5.1654591e-05)
(0.00021013757 -7.6622562e-06 0.00034194518)
(6.8975462e-05 -4.0596066e-05 7.277973e-05)
(7.9248583e-05 -2.8529854e-05 0.00023909394)
(0.00018445556 1.2893503e-06 0.00029412053)
(-1.7300078e-05 -3.1468278e-05 5.718341e-05)
(0.00021073058 -1.5299944e-05 0.00034580118)
(6.3148206e-05 -2.9328178e-05 5.8233101e-05)
(-1.303979e-05 -3.9865465e-05 5.1528464e-05)
(8.4403706e-05 -3.8083995e-05 8.6518289e-05)
(0.00021777387 1.5054237e-05 0.00035339988)
(9.0515267e-05 -4.2326129e-05 9.5281754e-05)
(-6.3591563e-06 -3.6653081e-05 3.5339644e-05)
(0.00020601657 2.536228e-05 0.0003536314)
(0.00030654365 2.8301991e-05 0.00051656218)
(0.00031129052 2.7260653e-05 0.00052709775)
(0.00030190593 2.0313449e-05 0.0005160799)
(0.00020581422 1.2179313e-05 0.00035120718)
(-4.5228796e-06 -4.0885258e-05 3.0503301e-05)
(0.00030155311 1.5569017e-05 0.00052109232)
(6.1007305e-07 -3.4134141e-05 2.0250445e-05)
(0.00031325155 2.5830096e-05 0.00052418116)
(0.00022812493 -6.4948197e-06 0.00039527965)
(0.00029640718 1.5187178e-05 0.00051655967)
(-2.5178201e-06 -3.8232986e-05 2.6643044e-05)
(0.00024800074 2.6433018e-05 0.00041168649)
(0.00023587933 4.9991385e-05 0.00029705361)
(0.00030156027 2.2446008e-05 0.00051335012)
(0.00023868256 -5.3075456e-06 0.00039791559)
(0.00029759639 5.6798531e-06 0.00051210994)
(0.0002483446 2.6499878e-05 0.00041759886)
(0.00028858653 3.8362785e-05 0.00045184858)
(0.00029783455 2.3984151e-05 0.00050640374)
(2.9863126e-06 -4.1351809e-05 2.1287734e-05)
(0.00030154059 4.1226753e-05 0.00049260654)
(0.00017699684 -9.2672505e-07 0.00031340682)
(2.2662281e-06 -3.291019e-05 2.27937e-05)
(0.00031479659 2.7437966e-05 0.00053163492)
(0.00025031469 2.4580036e-05 0.00041642945)
(0.00020644161 -1.1651874e-05 0.00033605791)
(0.0002833783 3.7656816e-05 0.00048070019)
(0.00029929391 4.0857447e-05 0.00048760939)
(0.00026788073 3.065626e-05 0.00044176666)
(0.00030815603 3.0413656e-05 0.00052470445)
(0.00029311792 5.1854221e-06 0.00050410644)
(0.00025722862 2.8676367e-05 0.00043772668)
(0.00011154654 -2.1089802e-05 0.00012444862)
(0.00028032213 2.2282837e-05 0.00049976685)
(0.00011535285 -2.601672e-05 0.00013063224)
(0.0002939075 1.4984964e-06 0.00051659166)
(0.00025820997 3.3975704e-05 0.00043208973)
(0.00025941222 5.2686559e-05 0.00031993002)
(0.00025854273 2.7036297e-05 0.00043310496)
(0.00029526849 2.6251876e-05 0.00051820605)
(5.7681509e-05 7.6779518e-06 0.00022179886)
(0.00019110611 -8.8152043e-06 0.0003191471)
(0.00025612191 2.5170193e-05 0.00044435729)
(0.00027788192 1.529659e-05 0.00047563936)
(0.00026437382 2.2158983e-05 0.00044303443)
(0.00027625884 7.7736138e-06 0.00047687667)
(0.00022926476 1.7236847e-05 0.00039868026)
(0.0001967447 -6.0141718e-06 0.00031586122)
(5.2954077e-05 1.4560287e-05 0.00020578014)
(0.00029456006 -2.5990151e-06 0.00051119222)
(0.00026394918 -2.2711117e-06 0.00047518916)
(0.0002603525 2.9276913e-05 0.00043136621)
(4.62482e-05 2.3014541e-05 0.00020181845)
(0.00027189899 1.3812e-05 0.0004859148)
(0.00013055219 -2.1804661e-05 0.0001403438)
(0.00026022559 2.6502593e-05 0.00044324018)
(0.00022715426 1.432799e-05 0.00040696033)
(0.00014661615 -1.6243342e-05 0.00017119848)
(0.00030004325 -4.0143061e-06 0.00051142658)
(0.00025048475 8.1190041e-06 0.00044155542)
(2.4703289e-05 -3.0416383e-05 2.2020428e-05)
(5.2230026e-05 -4.6493875e-05 5.7294961e-05)
(0.0002471024 4.9406782e-05 0.00030389859)
(0.00013689996 -2.3296953e-05 0.00015257744)
(0.00026837583 1.7662828e-05 0.00046820114)
(0.00021024503 1.5864589e-05 0.00033017401)
(6.4371081e-05 -4.0604856e-05 5.996072e-05)
(0.00028050843 2.897981e-05 0.00046921508)
(-2.2625951e-06 -3.1464534e-05 1.7108002e-05)
(0.00016489542 -2.671244e-05 0.00018782742)
(0.00027918138 1.4911785e-05 0.00047560631)
(0.00029619179 3.6022324e-05 0.00047679636)
(8.9429478e-05 -3.6339471e-05 8.5445432e-05)
(0.00021126892 1.5835552e-05 0.00037008937)
(0.00021684131 1.2545777e-05 0.00036888917)
(0.00028941814 2.8553058e-05 0.00047363938)
(0.0002705892 4.3967088e-05 0.00032617378)
(0.00028913583 5.9536871e-05 0.00038010561)
(0.00029615966 -4.2161241e-06 0.00050966988)
(0.00029642836 3.4321031e-05 0.00047431406)
(0.00028744527 2.8727891e-05 0.00047175422)
(0.00019854007 1.0344099e-05 0.00032700622)
(0.00024816494 5.5796011e-05 0.00031881079)
(0.00025014963 5.744612e-06 0.00045106368)
(0.0002202566 -7.8285047e-06 0.00037025369)
(0.0002184929 -8.6421257e-06 0.00037134978)
(0.00025785881 9.7258151e-06 0.00044291901)
(0.00026644868 1.3651787e-05 0.00047167448)
(0.00026762311 1.7313502e-05 0.00044825766)
(0.00025987603 1.0252667e-05 0.00044195616)
(0.00025471555 2.2945007e-05 0.00043823817)
(9.0041252e-05 -2.5287799e-05 8.4241443e-05)
(0.00025406828 9.4296495e-06 0.0004370358)
(0.00019477748 3.2181371e-06 0.00034565387)
(0.00023871884 -1.1510927e-05 0.00040794164)
(0.00025767731 1.7642476e-05 0.00044464649)
(0.00027257702 5.2261061e-05 0.00033459406)
(0.00028618986 9.3252568e-06 0.00049853116)
(-3.0968611e-06 -3.2446772e-05 2.0481996e-05)
(0.00026698537 4.618839e-06 0.00047291465)
(0.00031294514 5.9888608e-06 0.00053888719)
(0.00019761881 -1.152945e-05 0.00032787947)
(-9.7968499e-06 -3.5371355e-05 3.0007297e-05)
(0.00010157983 -4.1413755e-05 0.00010424506)
(-3.5189176e-06 -3.5295074e-05 1.5931308e-05)
(0.00026997755 3.9251418e-05 0.00040848739)
(0.00020714989 -1.1233875e-05 0.00033699992)
(-3.2603676e-08 -1.8544037e-05 -2.9696582e-05)
(-1.1451252e-06 -3.8478138e-05 1.5509943e-05)
(-8.4443551e-06 -3.6047623e-05 4.1181398e-05)
(0.00024668808 4.1720669e-05 0.00030397608)
(-2.3310234e-06 -4.1507154e-05 2.7543039e-05)
(-7.2114098e-06 -3.5564959e-05 2.3397299e-05)
(0.00010281866 -2.7419092e-05 0.00010980555)
(0.00010051901 -2.8817706e-05 0.00010930536)
(8.8133336e-05 -2.7763111e-05 9.0333234e-05)
(0.00011785947 -2.8609585e-05 0.00012462165)
(0.00012168315 -3.1160469e-05 0.00013176837)
(0.00010958683 -3.2095388e-05 0.00011058202)
(0.00033605947 4.2811529e-05 0.0004049402)
(0.00011055762 -3.5624422e-05 0.00011661171)
(0.00026386629 -4.5903798e-06 0.00045967533)
(0.00013182903 -2.7772997e-05 0.00013777242)
(-5.9340573e-06 -3.9766712e-05 3.7821354e-05)
(0.00013679928 -2.9467287e-05 0.00014705509)
(0.00020973679 6.0589992e-06 0.00036106811)
(0.00014344792 -2.6268492e-05 0.00015891201)
(0.00019182612 2.0363048e-06 0.00035021307)
(0.00013827786 -2.5703678e-05 0.00029025306)
(0.00026727369 1.7036721e-06 0.00046969432)
(7.4925606e-05 -3.3289931e-05 6.4225911e-05)
(0.00017287958 -9.6600633e-06 0.00029207126)
(0.00026698468 -1.1077094e-05 0.00046067332)
(3.8566886e-05 -4.3477764e-05 4.1965805e-05)
(0.00019668861 -4.0102496e-06 0.00031994222)
(0.0002615523 -4.5667432e-06 0.00045262066)
(0.00023413606 -1.1632752e-05 0.00038540735)
(7.3817914e-05 -5.7890619e-06 0.00017139874)
(0.00020046767 1.7270586e-05 0.00032823618)
(0.00020898715 1.1256111e-05 0.00034700149)
(6.8412616e-06 -3.4740457e-05 2.0581964e-05)
(4.5865798e-06 -3.0741189e-05 1.2230961e-05)
(9.5977509e-05 -1.0353652e-05 0.00021633202)
(0.0002614232 -9.6681966e-06 0.0004525059)
(1.1617934e-05 3.7193327e-05 0.00015712318)
(3.8903563e-05 2.4763327e-05 0.00018422106)
(0.00028197322 2.3377635e-05 0.00046897816)
(0.00017596621 -8.3268164e-06 0.00029405182)
(0.00025707375 4.2233654e-05 0.00041100836)
(7.5918419e-06 -3.1023958e-05 1.2923011e-05)
(6.3053937e-05 -3.7834286e-05 5.9404916e-05)
(-9.780836e-06 -3.1897708e-05 2.2360601e-05)
(8.7969357e-05 -4.2966646e-05 8.7001588e-05)
(-5.9832189e-06 -3.1056862e-05 1.7706856e-05)
(-7.0176876e-06 -3.0727204e-05 1.8963752e-05)
(-4.3263116e-06 -3.4975763e-05 1.787669e-05)
(6.0267722e-05 -4.4570354e-05 5.4805654e-05)
(0.00027143537 -1.1066743e-05 0.00046592194)
(-6.5194564e-06 -3.0028553e-05 1.3510009e-05)
(-5.9397449e-06 -2.692483e-05 1.1023465e-05)
(-5.664737e-07 -1.9018784e-05 3.7497893e-06)
(-1.0488091e-05 -1.9215408e-05 1.0596964e-05)
(-4.9099025e-06 -2.5574549e-05 9.5058537e-06)
(-1.4915388e-06 -2.9722261e-05 1.1211269e-05)
(0.0002062819 -1.0075502e-05 0.00033683876)
(-9.1626552e-06 -9.3890285e-06 -3.8701725e-05)
(0.00026007241 3.6992535e-05 0.00042604074)
(0.00025781969 3.1326447e-05 0.00042180963)
(-1.0649601e-05 -9.5350417e-06 -3.1645674e-05)
(0.00011397574 -4.0509541e-05 0.00011473468)
(6.5049883e-05 1.7841607e-05 0.00021121584)
(0.00025122601 4.1579396e-05 0.0002953424)
(6.0269676e-05 1.9852565e-05 0.00019866319)
(0.00010594146 -4.5289992e-05 0.00011084088)
(0.00020221702 4.0864477e-05 0.00024470657)
(-9.2945502e-06 -3.1705701e-05 2.5243417e-05)
(5.4398968e-05 1.3281572e-05 0.00017646086)
(6.7059369e-05 5.5694969e-06 0.00020154495)
(4.6869829e-05 -4.8306379e-05 4.494633e-05)
(0.00021978599 1.530145e-05 0.00036541253)
(0.00026792231 4.6709189e-05 0.00031686108)
(0.00029864545 5.7119943e-05 0.00035441094)
(0.00012451308 -3.5003898e-05 0.00012835519)
(0.00013257942 -3.5196069e-05 0.00013764348)
(0.00027354587 4.4997645e-05 0.000321569)
(0.00023256496 1.4058796e-05 0.00037630859)
(0.00022330882 1.663656e-05 0.00036745839)
(-7.5245945e-06 -3.0346688e-05 2.2186191e-05)
(0.00015832115 -5.7939589e-06 0.0002768155)
(9.3107378e-05 -3.9222741e-05 8.7153469e-05)
(0.00030261673 5.5335002e-05 0.00035628856)
(6.6515213e-05 -3.8934298e-05 5.9073051e-05)
(6.2856445e-05 1.1340821e-05 0.00020820029)
(5.0137211e-05 2.305374e-05 0.00019561604)
(-9.9848141e-06 -3.0868062e-05 2.4383916e-05)
(5.9437343e-05 -4.0418117e-05 5.3327361e-05)
(0.00024702614 -6.9094148e-06 0.00039931483)
(1.060487e-05 -3.587362e-05 2.3945593e-05)
(0.00032742882 4.9590068e-05 0.00039573735)
(-1.3638544e-05 -2.9975245e-05 3.9899878e-05)
(-9.9734104e-06 -2.636787e-05 2.8417717e-05)
(0.00026736748 3.8200607e-05 0.00032069616)
(-1.1220106e-05 -3.1861193e-05 3.8546011e-05)
(2.0838293e-05 -2.8299825e-05 1.885975e-05)
(0.0002610562 3.9085342e-05 0.00031791902)
(9.8550822e-05 -4.035948e-05 9.612907e-05)
(-1.4047251e-05 -2.9729938e-05 3.4967732e-05)
(-1.6707649e-05 -3.1133518e-05 4.2550836e-05)
(2.8587178e-05 3.5658706e-05 0.00019166252)
(-1.8879993e-05 2.3850195e-05 -4.3292941e-05)
(0.00025083992 5.2133651e-05 0.00030889836)
(0.00025288337 3.2381177e-05 0.00040571215)
(0.00023042708 -1.3064958e-05 0.00038962967)
(0.0002600597 3.682314e-05 0.00041453592)
(8.2493302e-05 -4.1881178e-05 7.2101532e-05)
(5.1929472e-05 2.6857588e-05 0.00018608664)
(7.3174713e-05 -3.2193744e-05 5.939668e-05)
(-3.7948394e-06 -3.3446897e-05 1.7189904e-05)
(8.7374626e-05 -4.2964246e-05 8.6071134e-05)
(7.1089099e-05 -4.4825094e-05 6.5554042e-05)
(9.2332585e-05 -4.9479354e-05 9.4151119e-05)
(4.2457338e-05 2.051139e-05 0.00018529091)
(5.9276374e-05 -4.528928e-05 6.0970011e-05)
(5.3170123e-05 -4.9282136e-05 6.0040679e-05)
(8.103936e-05 -4.5008977e-05 7.0614472e-05)
(9.3633955e-05 -4.9033356e-05 8.4068224e-05)
(0.00011022428 -4.612673e-05 0.00010388303)
(6.2031312e-05 -4.460789e-05 5.5223679e-05)
(5.0385087e-05 -4.4525731e-05 4.9985361e-05)
(7.4069122e-05 -4.8548831e-05 5.9995395e-05)
(5.4629458e-05 -4.9339405e-05 4.5849334e-05)
(-1.1176657e-05 -2.5261627e-05 1.9529853e-05)
(9.9951445e-05 1.1076964e-05 0.00021858183)
(-2.7302788e-05 1.38146e-05 7.2919039e-05)
(9.6359397e-05 -1.2154159e-05 0.0002067002)
(7.4998681e-05 -1.8019675e-05 0.00019056532)
(6.8801963e-05 -1.5431129e-05 0.00018027118)
(8.8145227e-05 -2.7982033e-07 0.00021226304)
(0.00024270807 3.9769064e-05 0.00028281621)
(0.00025442728 3.1105515e-05 0.00029212323)
(0.00025209629 3.70531e-05 0.00028829969)
(0.00025904551 3.4190991e-05 0.00030375675)
(0.0002660794 3.1824919e-05 0.00029625182)
(0.0002547559 3.5047662e-05 0.00030035884)
(0.00027707159 3.207464e-05 0.00031260374)
(0.00027193947 2.7677965e-05 0.00029872851)
(0.00025001753 3.4669967e-05 0.00027366438)
(0.00026806597 4.0923088e-05 0.00031147449)
(0.00027287325 3.483666e-05 0.00030616152)
(0.00026773013 2.9532885e-05 0.00029625704)
(0.00025902467 2.6536789e-05 0.00027291322)
(0.00026211921 2.7276148e-05 0.00027420838)
(0.00026743332 3.0131611e-05 0.0002847524)
(0.00027729502 2.3673898e-05 0.00029993872)
(0.00027994349 1.7456984e-05 0.00029082545)
(0.00025423833 3.1582843e-05 0.00029953006)
(0.00027547497 1.9681314e-05 0.00028509989)
(0.00024346048 2.4634125e-05 0.00026184394)
(0.00026993465 3.6486123e-05 0.0002984571)
(0.00019694236 3.5292088e-05 0.00023204071)
(0.00026839217 2.811246e-05 0.00029555401)
(0.00024489424 3.1510031e-05 0.00028179433)
(0.00025622838 3.0380796e-05 0.00030706763)
(0.0002664244 4.0093934e-05 0.00029058748)
(0.00024634877 2.329748e-05 0.00028085376)
(0.00022851344 1.7997103e-05 0.00025406649)
(0.00025317128 2.0952649e-05 0.00026632149)
(0.00026101436 1.6253723e-05 0.00027080628)
(0.00023772743 2.2842027e-05 0.00026938045)
(0.0002508817 4.1277354e-05 0.00028234544)
(0.00020973866 1.5820837e-05 0.00022540614)
(0.00024760916 1.1087433e-05 0.0002752907)
(0.00025778481 1.16269e-05 0.00026386209)
(0.00020436693 5.0570302e-06 0.00021308941)
(0.00028573764 5.2217205e-05 0.00033043005)
(0.00024398043 1.0008e-05 0.00025049286)
(0.00025159875 2.6835056e-05 0.0002599596)
(0.00026253827 2.4588701e-05 0.0002763187)
(0.00019720824 9.0989249e-06 0.00020732432)
(0.00027369451 2.7398925e-05 0.00030048013)
(0.00019488912 1.2018482e-05 0.00020155646)
(0.00026123593 3.0708915e-05 0.00027028022)
(0.00027214071 3.110435e-05 0.00029362272)
(0.00025797984 3.8297145e-05 0.00029513321)
(0.00025654428 3.5753973e-05 0.00028784171)
(0.00023078529 1.5613175e-05 0.00023858188)
(0.00025835687 2.0701573e-05 0.00027071606)
(0.00024259602 1.6180351e-05 0.0002690316)
(0.00026340519 3.384313e-05 0.00029157855)
(0.00022029051 1.3508598e-05 0.00025224223)
(0.00025584369 3.0950838e-05 0.0002723784)
(0.00025179586 3.2654658e-05 0.00030367751)
(0.00023813937 2.8995283e-05 0.00027987561)
(0.00025798253 2.8827455e-05 0.00026475601)
(0.00025881654 6.1782219e-06 0.00025801558)
(0.00026158445 2.2076175e-05 0.00026240644)
(0.00024836007 4.5379004e-06 0.0002432715)
(0.00023514574 1.7790594e-05 0.00023501973)
(0.00022840425 8.9542063e-06 0.00023573406)
(0.00019716012 1.2096837e-05 0.00019580957)
(0.00020838892 1.806263e-05 0.00022059641)
(0.00024728543 9.1315006e-06 0.00027236624)
(0.00019208297 4.2516553e-06 0.0001857948)
(0.00024400786 4.0841386e-06 0.00024027382)
(0.00023189758 2.3254922e-05 0.0002738394)
(0.00021685762 1.6940948e-05 0.00024722846)
(0.00023990094 3.9074492e-05 0.00027937608)
(0.0002079572 5.6707846e-06 0.00021682328)
(0.00023481938 4.2222036e-05 0.0002693794)
(0.00023296761 6.7362887e-06 0.00022611414)
(0.00022953431 4.4880793e-07 0.00021421995)
(0.00023762673 2.1899699e-05 0.00028190069)
(-1.4235219e-05 2.2717172e-05 -3.6485029e-05)
(0.00023416473 -8.2445718e-06 0.00021811898)
(-8.3957764e-07 -2.4257537e-05 -2.8792222e-05)
(0.00023710428 1.4165538e-05 0.00025319171)
(0.00026665978 3.1393997e-05 0.00029555639)
(-1.3961786e-05 -7.2609511e-06 -4.2521008e-05)
(0.00026612945 1.9043122e-05 0.00027479203)
(0.00027862705 5.4521116e-05 0.00032570747)
(0.00025757986 2.1063278e-05 0.00025468516)
(0.00028070433 6.5516641e-05 0.00034981982)
(0.00025066504 2.0872993e-05 0.00029433526)
(0.00028710509 5.6019758e-05 0.00033782279)
(0.00019053306 1.1648499e-05 0.00019109167)
(0.00024465951 3.3794034e-05 0.00026893349)
(0.00020091087 7.483929e-06 0.00020445798)
(0.00024942239 -1.5979072e-06 0.00025195796)
(0.00025275603 2.8485006e-06 0.00023701479)
(0.00026491902 2.4284915e-05 0.0002658057)
(0.0002792595 3.9831873e-05 0.00031520869)
(0.00018590599 1.334651e-05 0.00025869651)
(0.00020452039 -8.9232271e-06 0.00018921289)
(0.00018008465 1.3907127e-05 0.00025549584)
(-3.5293874e-06 -2.3232488e-05 -2.0712881e-05)
(0.00024464665 5.0192543e-05 0.0003021467)
(0.0002472541 3.3737205e-05 0.00027114006)
(0.00022101859 -4.4438213e-06 0.00021762658)
(0.00022523173 -3.8196266e-06 0.00020728064)
(0.00025906815 9.353236e-06 0.00025118247)
(0.00025828476 -1.7252077e-06 0.00024202867)
(0.00024083686 -1.4197626e-06 0.00022242704)
(0.00026583466 1.0732613e-05 0.00026195876)
(0.00019793512 -6.8399713e-06 0.00017755985)
(0.00023537946 1.5825541e-05 0.00023832969)
(3.2316939e-05 4.2198278e-05 0.00018264329)
(0.00026324934 8.1162089e-06 0.00025429983)
(0.00016502594 -1.2468156e-05 0.00015300168)
(0.00018670487 -3.1341651e-06 0.00017534422)
(0.00017970295 1.0898979e-05 0.00024638385)
(0.00021368798 -5.4769482e-06 0.00019988208)
(0.00019986582 -1.186662e-05 0.00018320058)
(0.00022966518 2.4151157e-05 0.000244483)
(0.00024409007 7.9897504e-06 0.00023711173)
(0.00022655536 2.343488e-05 0.00023886834)
(0.00025648179 7.6525358e-06 0.00024041221)
(0.00018371103 -3.3275608e-06 0.00016475463)
(0.00021977884 4.3700264e-07 0.00020063731)
(0.00019937891 -2.0729573e-05 0.0001753092)
(0.00019639267 -1.1668743e-05 0.00017377459)
(0.00021689145 1.5107081e-06 0.00021106503)
(0.00020512286 -1.493535e-05 0.00018082285)
(0.00022285276 -9.6626412e-06 0.00020262035)
(0.00021103071 -1.0308092e-05 0.00018826779)
(0.00016363314 -8.4677365e-06 0.00014587573)
(0.00019928197 -1.7600654e-05 0.00017327662)
(0.00020266798 -2.0208773e-05 0.00017628998)
(0.00024288992 1.0794939e-05 0.00025285817)
(0.00019474046 -1.9313136e-05 0.00016755997)
(0.00018340632 -1.6126214e-05 0.00016503139)
(0.00019045951 -7.8864855e-06 0.00017259822)
(-3.4599534e-05 3.1941914e-05 -2.9012113e-05)
(0.00019111058 -2.3989167e-05 0.00016064036)
(0.0001976126 -2.7799231e-05 0.00017202407)
(0.00020010008 -2.1998237e-05 0.0003122069)
(0.00019535998 -3.090107e-05 0.00016205131)
(0.00020811455 -2.6670787e-05 0.00017828246)
(0.00018843145 -2.8936411e-05 0.00015462299)
(0.00021819812 -1.6182599e-05 0.00019416922)
(0.00020428345 -2.7672003e-05 0.00016799655)
(-3.5307168e-06 -2.3549634e-06 -1.9076705e-05)
(0.00018824334 -2.8696256e-05 0.00014866585)