/*--------------------------------*- C++ -*----------------------------------*\
  =========                 |
  \\      /  F ield         | OpenFOAM: The Open Source CFD Toolbox
   \\    /   O peration     | Website:  https://openfoam.org
    \\  /    A nd           | Version:  11
     \\/     M anipulation  |
\*---------------------------------------------------------------------------*/
FoamFile
{
    format      ascii;
    class       volVectorField;
    location    "10000";
    object      wallShearStress;
}
// * * * * * * * * * * * * * * * * * * * * * * * * * * * * * * * * * * * * * //

dimensions      [0 2 -2 0 0 0 0];

internalField   uniform (0 0 0);

boundaryField
{
    wall-fluid_domain
    {
        type            calculated;
        value           nonuniform List<vector> 
50990
(
(0.00048115085 -4.7993339e-05 0.00012113623)
(0.00048492881 -5.3036703e-05 0.00013353856)
(0.00022013729 -2.5173988e-05 7.5487712e-05)
(0.00041982634 -3.7629195e-06 9.9069873e-05)
(0.00047157472 -4.1789694e-05 0.00013023571)
(0.00056005473 3.5194807e-06 0.00011431213)
(0.00047441359 -4.9882705e-05 0.00012179619)
(0.00045959678 -3.7439337e-05 0.00010654884)
(0.00051469484 -8.4952599e-06 0.00012372985)
(0.00063065098 -3.309761e-05 0.00014061656)
(0.00044726558 -4.0098658e-05 0.00010600149)
(0.00060887112 -4.0435499e-05 0.00013490673)
(0.00020097595 -2.9412731e-05 6.346948e-05)
(0.00047802712 -4.5416422e-05 0.00012629512)
(0.00058219389 -3.7888159e-05 0.00012795968)
(0.00062083574 -3.2302462e-06 0.00010502266)
(0.00062503081 -2.4884973e-05 0.00013831566)
(0.00046423585 -4.173361e-05 0.00012804379)
(0.00053689824 9.9066894e-06 8.9847961e-05)
(0.0004779215 1.4584522e-05 8.3843522e-05)
(0.00040286794 3.0826757e-05 0.00011338304)
(0.00056198965 1.1342448e-05 0.00011814421)
(0.00062210339 -1.5408633e-05 0.00014067547)
(0.00061834947 -1.1308839e-05 0.00012841301)
(0.00042907673 -5.2370603e-05 0.00012262284)
(0.00059293906 2.6282936e-05 0.00012950462)
(0.00041441988 5.8781278e-05 0.00011032306)
(0.0005584255 1.1212997e-05 0.00011600109)
(0.00036683763 -5.4749109e-05 0.00011960463)
(0.00041225756 5.1919348e-05 0.00013454789)
(0.00057432208 -1.8430469e-05 0.00010791965)
(0.00062825096 5.8667728e-05 0.00016737908)
(0.00062027145 4.5020929e-07 0.00013184497)
(0.00065328536 3.3583936e-05 0.00014389413)
(-0.00013098031 6.8167588e-05 -6.2504817e-05)
(0.00065161447 4.9605768e-05 0.00015459441)
(0.00056206402 1.3773591e-05 0.00011723962)
(0.00061295357 -1.1641241e-05 9.9117576e-05)
(0.00057555642 2.367642e-05 0.00013190693)
(0.00064699556 7.3334779e-05 0.00018812295)
(0.00050716091 3.4032417e-06 9.18997e-05)
(0.00061085256 -5.5819859e-05 0.00014764369)
(0.00028778164 -4.1279274e-05 7.9598146e-05)
(0.00020053076 -2.3675606e-05 4.9585479e-05)
(0.00045339912 8.5234213e-05 8.5183211e-05)
(0.0005672783 -2.3568983e-05 0.00010943002)
(0.00055480299 4.2362343e-05 0.00014721046)
(0.00057592826 -3.832482e-05 0.00012754565)
(0.00046733356 -8.2232297e-06 8.2300837e-05)
(0.00048330448 -1.4971021e-05 9.4727268e-05)
(0.00034537071 -4.4750231e-05 0.00012214449)
(0.00040986575 -6.0533819e-05 0.00012946451)
(-5.5493118e-05 3.9267822e-05 -2.2189102e-05)
(-7.6356472e-05 4.496741e-05 -3.6899419e-05)
(0.00037635722 -4.7571662e-05 0.00012086751)
(-0.0001527879 6.5689511e-05 -6.0718529e-05)
(0.0005386407 -3.7417429e-05 0.00012159083)
(0.0004827317 -5.5012848e-05 0.00013246529)
(0.00033369006 -4.0565439e-05 0.00011944159)
(0.00042819361 3.2460494e-05 0.00012129891)
(0.00033450029 -4.3467166e-05 0.00011960557)
(0.00028440332 -3.7005079e-05 7.7233142e-05)
(0.00028027279 -4.2185762e-05 9.0197312e-05)
(0.00034651553 -4.5132831e-05 0.00012196757)
(0.00056414852 -6.010046e-05 0.00013219194)
(0.00015840529 -2.9372925e-05 2.6486876e-05)
(0.00058328627 -4.7421621e-05 0.00012950183)
(0.0002098569 -3.0428964e-05 6.7637227e-05)
(0.00056856349 -5.4992003e-05 0.0003261638)
(0.0004563529 -4.8421951e-05 0.00011773269)
(0.00029403757 -4.371764e-05 0.00010028784)
(0.00021086991 -3.8986231e-05 4.9258107e-05)
(0.00014534311 -2.8547176e-05 2.8412264e-05)
(0.00052416962 -2.661699e-05 0.00011672314)
(0.00017620399 -2.8127068e-05 5.0657945e-05)
(0.00032686095 -3.8649325e-05 0.00010611487)
(0.00019033807 -3.968202e-05 5.140099e-05)
(0.00013251025 -3.4624638e-05 2.252008e-05)
(0.00016551259 -4.0728235e-05 4.2800914e-05)
(0.00020448117 -3.4806199e-05 6.3074185e-05)
(0.00029053042 -3.7590019e-05 9.9885699e-05)
(0.00013739439 -3.8549322e-05 3.9531835e-05)
(0.0001609501 -3.7826552e-05 5.4399758e-05)
(0.0003278919 -3.6189243e-05 0.00011003243)
(0.00018151588 -3.9037046e-05 5.6037667e-05)
(0.00022894772 -3.7570715e-05 6.9316326e-05)
(0.00026150153 -2.8594332e-05 8.7155414e-05)
(0.00035277207 -4.4149213e-05 0.00011668769)
(0.00017184454 -3.3212928e-05 6.3820452e-05)
(0.00014676911 -3.4253574e-05 5.7327581e-05)
(0.00022668488 -3.8675822e-05 7.5851764e-05)
(0.00017826695 -3.3944585e-05 6.217302e-05)
(0.00015746673 -3.1443414e-05 6.2813102e-05)
(0.00014639416 -3.1912218e-05 5.8433337e-05)
(0.00057254521 -5.824516e-05 0.00032424344)
(0.00053167396 -4.9203575e-05 0.00029910381)
(0.00038979173 -4.13886e-05 0.00023040877)
(0.00048288221 -5.9260587e-05 0.00013310842)
(0.00012083036 -3.1412233e-05 3.8426647e-05)
(0.00057516188 -5.296564e-05 0.00012871533)
(0.00044712211 -5.5859013e-05 0.0001132944)
(0.0004974911 -2.8643799e-05 0.00010971051)
(0.00010937358 -2.440433e-05 4.7755097e-05)
(0.00043786526 -5.6232058e-05 0.00011367509)
(0.00041007339 5.0792251e-05 0.00012810716)
(0.00010766651 -5.8412769e-06 5.8494969e-05)
(9.4581289e-05 -1.4668544e-05 5.2196221e-05)
(0.00010367986 -7.6173648e-06 6.2351646e-05)
(0.00010653162 -9.4516733e-06 5.6307473e-05)
(0.00052145509 -1.8863773e-05 0.00011489318)
(0.0004778414 -5.4832214e-05 0.00010875845)
(0.00054074819 -5.2587558e-05 0.0001159442)
(0.00056658034 -4.443232e-05 0.00012306494)
(0.00048220358 -6.7643174e-05 0.0001259552)
(0.00047462342 -6.5971925e-05 0.00011401694)
(0.00056145187 -3.8739013e-05 0.00012277074)
(0.00049536234 -5.6213322e-05 0.00011179152)
(0.00047130082 -6.5292513e-05 0.00011276309)
(0.00051222803 -4.0066927e-05 0.00010847372)
(0.00049760543 -4.6046777e-05 0.00010179696)
(0.0004886719 -5.9108785e-05 0.00010635369)
(0.00046866656 -6.8863278e-05 0.00011993809)
(0.00034738714 -5.2760418e-05 8.7512218e-05)
(0.00042648888 -7.119035e-05 0.00011283515)
(0.00054821904 -9.0909133e-05 0.00013663166)
(0.00051965238 -7.6991475e-05 0.00011145788)
(0.00049675685 -5.3612805e-05 9.8946274e-05)
(0.00055422804 -4.170288e-05 0.00011294796)
(0.00055177819 -8.8733539e-05 0.00012912377)
(0.00052256211 -7.4495023e-05 0.00011008636)
(0.00055263035 -2.6327289e-05 0.00011552979)
(0.00049802906 -4.5950693e-05 9.8427141e-05)
(0.00055817942 -2.5988477e-05 0.00011274654)
(0.00054829641 -3.8814788e-05 0.00011180181)
(0.00058973871 2.0003949e-05 0.00012313447)
(0.00051092637 -2.855191e-05 9.6844594e-05)
(0.00051921899 -7.2643849e-05 0.00010570466)
(0.00055584377 -1.822435e-05 0.00011625287)
(0.00055496771 -6.342294e-05 0.00010373516)
(0.0005216796 -6.4969049e-05 9.6487397e-05)
(0.00042040058 -7.6444276e-05 9.9372884e-05)
(0.0005424648 -4.0263686e-05 0.00010038621)
(0.00055445426 -5.1812507e-05 0.0001012223)
(0.000550473 -1.1221796e-05 0.00011040498)
(0.00051341481 -2.3203143e-05 0.00010487828)
(0.00049534873 -9.2558664e-05 0.00011276271)
(0.00057909328 4.3108315e-05 0.00014178214)
(0.00043993684 6.4241065e-05 7.182507e-05)
(0.00039103277 -5.871858e-05 7.3906247e-05)
(0.00049784642 4.676686e-05 8.3809236e-05)
(0.0005437653 -5.903066e-05 9.7705157e-05)
(0.00054025386 -3.0242129e-05 9.9473095e-05)
(0.00038153045 5.8807354e-05 6.1343839e-05)
(0.00051462883 -6.6003053e-05 9.2945123e-05)
(0.0005603889 -1.5853215e-05 0.00010802819)
(0.00040881618 2.3120485e-05 6.8775407e-05)
(0.00044975226 -3.7267122e-05 7.5405113e-05)
(0.00059043879 -2.7288583e-05 0.00010871104)
(0.00047518966 -3.0319933e-05 8.5580175e-05)
(0.00057533727 -1.8918006e-06 0.00011950119)
(0.00043702235 -6.9213886e-05 8.0799248e-05)
(0.00048486881 -5.2682803e-05 8.4254108e-05)
(0.00047611055 -6.9361648e-05 7.7714758e-05)
(0.00058770656 -7.0557953e-06 0.00011761663)
(0.00047837931 -3.0836545e-05 8.6991884e-05)
(0.00056540874 -6.1006072e-05 9.9313602e-05)
(0.00056533024 -4.7023177e-05 9.8872642e-05)
(0.00060454466 5.7359205e-06 0.00012643728)
(0.00059490286 -2.0644423e-05 0.00010986214)
(0.0005868376 -1.8911505e-05 0.00010745158)
(0.00057718496 2.446668e-06 0.0001197149)
(0.00064933624 5.4112009e-05 0.00018540936)
(0.00055615311 -5.3222238e-05 9.5676435e-05)
(0.00063591127 -8.5586051e-06 0.00013814983)
(0.00052132786 -2.1615234e-06 0.00010761167)
(0.00054479602 -3.5668709e-05 9.6081166e-05)
(0.00059647519 -8.9402838e-05 0.00016421832)
(0.00043160193 -4.1017413e-05 7.3198228e-05)
(0.00053617483 -3.2676382e-05 9.5505559e-05)
(0.00050603779 -8.7707801e-06 9.4189652e-05)
(0.00054802734 -2.2464721e-05 0.00010121727)
(0.00042503801 -3.6967067e-05 6.8994256e-05)
(0.00052776093 8.8594067e-06 0.00011013833)
(0.00050330485 -5.874416e-05 7.2958229e-05)
(0.0004912991 -3.3065116e-05 8.4794735e-05)
(0.00046244585 -3.4226772e-05 7.562807e-05)
(0.00060235151 2.0872135e-05 0.00013477511)
(0.00050628987 -8.5566361e-07 0.00010302039)
(0.00048227336 -2.8801445e-05 8.2758345e-05)
(0.00055355003 -8.1771097e-05 0.00014851765)
(0.00048773883 -6.4264765e-06 9.1686048e-05)
(0.00053083972 1.1626824e-05 0.00012225102)
(0.00049184904 -4.9691375e-05 7.621709e-05)
(0.00049942939 -1.3609357e-05 9.3735166e-05)
(0.00043997875 8.0735614e-05 8.3753165e-05)
(0.00049552692 2.0702751e-05 0.0001186054)
(0.0004532718 -2.6647795e-05 8.1958258e-05)
(0.00048718064 -3.7329961e-05 7.3617638e-05)
(0.00063618245 2.746035e-05 0.00015195683)
(0.00048105157 -3.7129472e-06 0.00010675257)
(0.00049272558 -6.3758713e-06 9.6317363e-05)
(0.00044524578 -2.0818031e-05 7.9375065e-05)
(0.00052279944 -1.2434818e-05 9.956693e-05)
(0.00058936186 9.8049863e-06 0.00012511665)
(0.00048885137 -3.1449962e-06 0.00010185879)
(0.00048873351 -3.8736434e-05 7.5665766e-05)
(0.00058169964 -5.353079e-06 0.00012189738)
(0.00042502204 -5.6441365e-05 6.6102593e-05)
(0.00061188354 1.4284897e-05 0.00013764234)
(0.00062831317 1.6075184e-05 0.00013677865)
(0.00043396708 -1.7850217e-05 7.9835879e-05)
(0.00048745671 -2.6273346e-05 8.1533087e-05)
(0.00065784826 3.3012709e-05 0.00016435163)
(0.00049941918 2.0535414e-05 0.00012589125)
(0.00048731375 -2.7141801e-05 8.8772232e-05)
(0.00062880188 -1.0489932e-06 0.00013322033)
(0.00042191768 -2.9234074e-05 7.2107662e-05)
(0.00039346005 -5.3505943e-05 5.820241e-05)
(0.00062483228 2.7848685e-05 0.00014455068)
(0.00066832063 2.718415e-05 0.00016862765)
(0.00039304194 -4.5080233e-05 5.822523e-05)
(0.00040955904 -7.1306757e-06 7.9976675e-05)
(0.00042155107 -2.0943627e-05 7.6635496e-05)
(0.00044739984 -1.603193e-05 9.0074174e-05)
(0.00041628101 -2.2970593e-06 8.6084581e-05)
(0.00036607809 -4.6625921e-05 5.4593822e-05)
(0.00038249024 -2.6954248e-05 7.083464e-05)
(0.00038505846 -3.1830098e-05 6.4766951e-05)
(0.00061661362 3.2132311e-05 0.00014497576)
(0.00059677487 3.6616504e-05 0.00015366064)
(0.0005998868 2.1324862e-05 0.00013615)
(0.00043658486 -2.0160913e-05 8.8049237e-05)
(0.00044979267 -9.585333e-06 9.3985282e-05)
(0.00060334262 1.2694919e-05 0.00013562424)
(0.00040941643 -2.0916136e-05 8.605115e-05)
(0.00043478795 -1.7038327e-05 9.1142145e-05)
(0.00046885629 -6.2652251e-05 7.8435741e-05)
(0.00054226987 -8.5038792e-05 0.00015702132)
(0.00043992054 2.5217171e-05 0.00010969412)
(0.00046525147 -2.2347309e-06 0.00010574832)
(0.000521882 -7.9966298e-05 8.636739e-05)
(0.00041304655 -1.2124048e-05 8.9580226e-05)
(0.00041163843 -7.2888748e-06 9.8550404e-05)
(0.00059518289 2.8241695e-05 0.00015284883)
(0.00042402854 -7.3612722e-05 7.4749392e-05)
(0.00047474461 -2.461723e-06 0.00011794166)
(0.00062788561 4.5281412e-05 0.00016841933)
(0.00055880659 5.9118595e-06 0.00011872619)
(0.0005076551 -7.6243475e-05 7.5882409e-05)
(0.00059909853 2.0555719e-05 0.00013965459)
(0.00056912204 1.1792637e-06 0.00012036452)
(0.00060163869 4.2230694e-05 0.00016426787)
(0.00051561331 -2.0047689e-06 0.00010097502)
(0.00051620067 -9.2358804e-06 0.00010118957)
(0.00060649661 4.2794438e-05 0.00014782056)
(0.00059137324 5.4744882e-05 0.00015763825)
(0.00060698797 3.0721929e-05 0.00014547975)
(0.00063434877 4.1714513e-05 0.00017063187)
(0.00057319048 4.2466807e-05 0.00015957581)
(0.00060067514 4.7567442e-05 0.00016170487)
(0.00056905739 4.0589823e-05 0.00015690849)
(0.00051399729 2.2145483e-06 0.00010667923)
(0.00055862083 4.8126039e-05 0.00015614681)
(0.00063052552 5.5656796e-05 0.00017331474)
(0.00058693076 3.0121802e-05 0.00014600526)
(0.0004769356 9.4129182e-06 0.00010793522)
(0.00068116322 5.7640858e-05 0.00019830375)
(0.0006415759 5.4962603e-05 0.0001819944)
(0.00041636652 -4.9501659e-05 6.4260687e-05)
(0.00050696258 -9.5714812e-05 0.00022831479)
(0.0004357856 -5.0476929e-05 7.0065426e-05)
(0.00067792857 6.9669357e-05 0.0002035688)
(0.00054053658 1.4370514e-05 0.00011896081)
(0.0004452748 5.8290369e-05 7.0240362e-05)
(0.00044233831 7.4863582e-05 7.3845341e-05)
(0.00056695795 1.5575252e-05 0.0001261071)
(0.00061623342 5.5470302e-05 0.00018142517)
(0.00048085467 8.7987399e-05 0.0002332733)
(0.00054027088 4.2204123e-06 0.00011698709)
(0.00067821558 7.194113e-05 0.0002176198)
(0.0005936726 7.1701546e-05 0.00019982183)
(0.0004748538 4.6296987e-05 7.4935219e-05)
(0.00042772809 -4.505355e-05 6.6888772e-05)
(0.00044854434 8.4237049e-05 7.412822e-05)
(0.00061199245 6.346818e-05 0.00018742034)
(0.00052739657 6.2336395e-05 0.00017917049)
(0.00062053595 4.0251099e-05 0.00016859327)
(0.00034031313 -3.3058445e-05 6.123159e-05)
(0.00037762684 -3.3927793e-05 7.4660169e-05)
(0.00062187322 6.2116279e-05 0.00020318512)
(0.00056361261 5.1707559e-05 0.00016958452)
(0.00058316721 4.1812953e-05 0.0001449917)
(0.00049093975 -1.6298854e-06 0.00011195549)
(0.00041830892 -7.5462369e-05 6.7028152e-05)
(0.00060992781 1.3215256e-05 0.00013939279)
(0.00058733751 4.6870017e-05 0.00016023966)
(0.00064671533 6.7417253e-05 0.00019125551)
(0.00060887311 4.6764654e-05 0.00016512389)
(0.00048395379 2.2309576e-06 0.00011085748)
(0.00057621681 3.6479225e-05 0.00014829887)
(0.00065473788 6.9645246e-05 0.00020068394)
(0.00057544106 5.470651e-05 0.00017004723)
(0.00043927003 -8.7770977e-05 7.8867973e-05)
(0.00041106471 8.1231444e-06 9.9604787e-05)
(0.00066972112 7.0042912e-05 0.0002146893)
(0.00043594683 -1.9430475e-05 9.8816061e-05)
(0.00060748578 6.9584978e-05 0.00021339583)
(0.00058711611 3.331195e-05 0.00014556044)
(0.00057242656 2.7833687e-05 0.00013509938)
(0.00054208566 4.6194536e-05 0.00014694395)
(0.00054306061 1.67868e-05 0.00012965579)
(0.00060757332 3.4448065e-05 0.00014621771)
(0.00041470812 -6.0444862e-06 0.00010397245)
(0.00058018442 4.17963e-05 0.00015369864)
(0.0005162305 3.8336647e-06 0.00011298542)
(0.00048209464 -7.6745711e-07 0.00010649665)
(0.00053180887 6.3339131e-05 0.00018976141)
(0.00065141479 5.7751378e-05 0.0001930116)
(0.00047555466 2.4808307e-05 0.00011791497)
(0.00040881132 1.4508112e-05 6.9345982e-05)
(0.0004777803 2.787575e-05 0.00012571206)
(0.00061520213 6.8803447e-05 0.00020686953)
(0.00055831857 5.6995785e-05 0.00017404964)
(0.0005987275 7.1023525e-05 0.00019684752)
(0.00061906921 7.891028e-05 0.00022598908)
(0.00045262925 -6.3552148e-05 5.7147622e-05)
(0.00045287647 -5.0484875e-07 0.00011480654)
(0.00046704044 -8.7264532e-05 6.7289845e-05)
(0.00055582343 7.0233087e-05 0.00020872562)
(0.00063131105 6.4248518e-05 0.00020872996)
(0.00055317834 5.9636493e-05 0.00019835582)
(0.0003716151 -3.1719895e-05 7.4135142e-05)
(0.00053940557 1.2170775e-05 0.00012017804)
(0.00062887428 2.2386437e-05 0.00015500935)
(0.00043221553 -3.9026209e-05 9.4868542e-05)
(0.00043803958 5.0154674e-05 0.00010997238)
(0.00049865073 3.6016727e-05 0.0001420807)
(0.00049886944 4.818841e-05 0.00012441351)
(0.00043928228 -1.9501832e-05 0.00010753124)
(0.00058757503 5.2820434e-05 0.00016308566)
(0.00041018545 -2.8496287e-06 0.00010324875)
(0.00062497708 6.5636044e-05 0.0001890494)
(0.00046259447 1.3047972e-05 0.00010994455)
(0.00049416812 6.9041659e-06 0.00011587237)
(0.00044549305 3.3815054e-06 0.00011596626)
(0.00042482735 9.7634639e-06 0.00010904406)
(0.00045316017 -8.3506238e-05 5.936751e-05)
(0.00059524617 6.0388501e-05 0.00017628464)
(0.00048486565 1.2304585e-05 0.00013414407)
(0.000536938 -0.00010580875 0.00021059909)
(0.00041990556 1.8756112e-05 0.00011344677)
(0.00047399313 9.4790738e-05 0.0002058017)
(0.00047407945 9.8256164e-06 0.00010875028)
(0.00049525452 2.0732442e-06 9.0631061e-05)
(0.0003515872 -3.4532367e-05 6.4792353e-05)
(0.00043278746 -1.5249182e-05 0.00010507998)
(0.00042426853 -3.7122282e-05 9.1609376e-05)
(0.00041853146 -2.4926579e-05 9.3578612e-05)
(0.00062509584 3.552722e-05 0.00015976287)
(0.00062086956 3.6733185e-05 0.00017290398)
(0.00043782819 -1.0553751e-05 0.00011504429)
(0.00065176035 7.5134301e-05 0.00020130327)
(0.00039782584 1.2413783e-05 0.00011133847)
(0.00048153908 -1.6450756e-05 9.1467945e-05)
(0.00050368275 1.982024e-05 0.00012825799)
(0.00061399885 -4.8969062e-05 0.0001586288)
(0.00049735085 2.369462e-05 0.00012782126)
(0.00040493312 1.399707e-05 0.00012039762)
(0.00050566204 -3.3034304e-05 0.00011188129)
(0.00048005785 2.1034733e-05 0.00013897642)
(0.00047463014 -7.6196032e-07 0.00012817627)
(0.00047884098 3.3647181e-05 0.00013894644)
(0.00044012307 -9.6616788e-06 0.00012308904)
(0.00049288605 2.3020501e-05 0.00014062665)
(0.00038372367 -2.7098439e-05 9.0640345e-05)
(0.00039046164 -3.4701513e-05 8.0919245e-05)
(0.00035258978 -4.448663e-05 6.877926e-05)
(0.00049126574 1.0284617e-06 0.00014003866)
(0.00052165531 3.2664333e-05 0.00014538647)
(0.00053203892 2.2308429e-05 0.00014013402)
(-1.6099888e-05 2.4902918e-05 9.9668903e-06)
(0.0004938674 2.9815043e-05 0.00013368623)
(0.0004759638 2.2224242e-05 0.00014291646)
(0.00051631811 3.5220783e-05 0.00015549403)
(0.00048785455 3.2295807e-05 0.00014662426)
(0.00051721111 3.0316156e-05 0.00014936395)
(0.00051019094 4.0778125e-05 0.00016069239)
(0.00051034106 3.7760387e-05 0.00015262653)
(0.00048153833 3.5634665e-05 0.00015086961)
(0.00041832349 3.686021e-05 0.00011811548)
(0.0004152064 5.0498451e-05 0.00010903859)
(0.00058861942 -8.685497e-05 0.00016920065)
(0.00040403932 -4.7704109e-05 0.00012236343)
(0.00035293185 5.0151451e-05 5.5812e-05)
(0.00044336015 -5.2680332e-05 0.00012683798)
(0.00043249943 5.0785259e-05 6.638877e-05)
(0.00046722966 4.27706e-05 7.0952234e-05)
(0.00035330636 6.1779447e-05 5.6907157e-05)
(0.00033978197 5.6164316e-05 5.3016156e-05)
(0.00047653155 4.170493e-05 7.8627748e-05)
(0.00039747213 5.4943267e-05 6.4293055e-05)
(0.00037437009 6.9267274e-05 5.9490623e-05)
(0.00046991404 3.7469728e-05 7.5653931e-05)
(0.00037464327 5.484698e-05 5.8317159e-05)
(0.00039873971 4.3115908e-05 6.4603743e-05)
(0.00035580687 8.8862291e-05 5.3950962e-05)
(0.00035855891 6.7623646e-05 4.7225833e-05)
(0.00035053529 8.2225328e-05 5.1396704e-05)
(0.00037462054 7.7058e-05 5.3402809e-05)
(0.00039516546 6.6128889e-05 6.7336436e-05)
(0.00030472307 3.601341e-05 5.3323155e-05)
(0.00032279269 -4.2150195e-05 0.000108095)
(0.00042812112 2.5981681e-05 7.627725e-05)
(0.00038297166 6.7989411e-05 5.6736582e-05)
(0.00023315124 -3.9505219e-05 8.0004884e-05)
(0.00029036487 3.892708e-05 4.6091969e-05)
(0.00036646454 -4.8094236e-05 0.00011951608)
(0.00046921682 2.1045435e-05 7.8381766e-05)
(0.00039061218 3.3725623e-05 7.4258338e-05)
(0.00039692366 3.4239448e-05 7.7499901e-05)
(0.00042816451 1.6472646e-05 7.9477125e-05)
(0.00036616041 5.1300753e-05 6.446371e-05)
(0.00046944208 1.5084625e-05 8.6288089e-05)
(0.00036114596 1.7348301e-05 7.0516287e-05)
(0.00038445354 3.3986714e-05 7.6205467e-05)
(0.00033050864 3.9719873e-05 6.4858469e-05)
(0.00034690094 6.9511002e-05 5.2306954e-05)
(0.00039787585 2.5530116e-05 8.4724472e-05)
(0.00039550509 2.4392469e-05 8.2169391e-05)
(0.00034857304 1.7351191e-06 7.2535479e-05)
(0.00043591784 1.3094181e-05 9.6451076e-05)
(0.00034236036 5.3053538e-05 5.6781947e-05)
(0.00032723475 3.7423229e-05 6.7134287e-05)
(0.00033910861 2.2012903e-05 7.1887871e-05)
(0.00037735398 9.4917705e-06 8.6688071e-05)
(0.00039361328 4.3515132e-05 8.2963474e-05)
(0.00043602989 5.2052499e-06 0.00010048385)
(0.0004947761 2.4782017e-05 0.00011818716)
(0.00038908334 6.6061303e-06 9.3444457e-05)
(0.0005239335 1.7423005e-05 0.00013054554)
(-9.0628319e-05 4.3506652e-05 -3.0234281e-05)
(0.00057722983 -7.4319304e-05 0.00031484806)
(0.00053809233 -5.5932411e-05 0.00030549184)
(0.00051557409 2.5067748e-06 0.00012015534)
(0.00052598932 9.3222335e-06 9.6605265e-05)
(0.00038853539 3.6352668e-05 8.2516929e-05)
(0.00059909756 -4.3389267e-05 0.00036026694)
(0.00042709557 2.2890022e-05 0.00010819699)
(0.00040095234 2.6458606e-05 9.4845802e-05)
(0.00051383863 -4.7609912e-06 0.00012720309)
(0.00050924826 1.5008357e-05 0.00013784262)
(0.00043386623 1.7291646e-05 0.00011568412)
(0.00050555518 9.2879041e-06 0.00013787084)
(0.00052030159 -3.9769245e-06 0.00012473927)
(0.00046498815 -1.6519948e-06 0.00012522646)
(0.00044336479 4.9969369e-06 0.000127857)
(0.00051236111 -6.0714908e-06 0.00013435598)
(0.00042483009 2.0752446e-05 0.0001156706)
(0.00050740644 -5.7994377e-06 0.00013714009)
(0.00040567704 -2.6930019e-06 0.00012591711)
(0.00045101896 3.8511244e-06 0.00013854442)
(0.00046811633 -1.5879563e-06 0.00015599243)
(0.00044595042 -3.2368564e-06 0.00013112834)
(0.00042142454 -2.8558262e-06 0.00013664581)
(0.00043871728 9.1965883e-06 0.00014028618)
(0.00049238982 -9.867059e-06 0.00014585467)
(0.00042054062 1.5907958e-05 0.00012605968)
(0.00052383315 -4.764392e-05 0.0003056052)
(0.00050813552 -1.2800145e-05 0.0001444273)
(0.00057052529 8.1683594e-06 0.00020001276)
(0.00044198041 4.9148289e-06 0.00014829353)
(0.000489192 -8.7588896e-06 0.00014940752)
(0.00056864926 4.5022291e-06 0.00020059551)
(0.00052858881 6.4043927e-05 0.00029821334)
(0.000581285 -1.7831027e-05 0.00017889044)
(0.00052707578 1.4676163e-05 0.00018410166)
(0.00058747415 -1.5310663e-05 0.00017685623)
(0.00042528151 -9.910188e-06 0.00014231266)
(0.00052706045 -5.8491882e-06 0.00018719033)
(0.00051728407 -1.2259552e-05 0.00016913276)
(0.00054262275 -2.9162543e-05 0.00018330725)
(0.00057294633 1.6596756e-06 0.00020588906)
(0.0005197865 2.6079589e-07 0.00010060939)
(0.00051426947 -1.1284337e-05 0.00017338064)
(0.00053272126 7.8676999e-06 0.00018960478)
(0.00056528322 -2.3532361e-05 0.00020005847)
(0.00036740373 7.53983e-05 7.4729775e-05)
(0.00053211105 5.0679884e-06 0.00019274172)
(0.00053296862 -1.1471156e-05 0.00019709811)
(0.00052385976 -3.72782e-06 0.00019953745)
(0.00053948751 -7.3067462e-06 0.00012136958)
(0.0004660968 7.5580339e-06 0.0001666588)
(0.0004618816 1.1159882e-05 0.00015659733)
(0.00052140261 -1.1579434e-05 0.00013412233)
(0.0004790332 -8.4786068e-07 0.00018378245)
(0.00054117676 1.1796459e-05 0.00019981792)
(-2.3979296e-05 3.1705128e-05 8.3268788e-06)
(0.00052987032 8.5835704e-06 0.00019858249)
(0.00049886165 -2.0184267e-05 0.00013752455)
(0.00054301895 1.3290439e-05 0.00019745755)
(0.00054795713 -2.8706023e-05 0.00019279739)
(0.00058458444 -2.4727574e-05 0.00018067672)
(0.00057497324 -5.6053087e-05 0.00014852609)
(0.00016209225 -5.8320478e-05 2.5940361e-05)
(0.00053881588 9.4380638e-06 0.0002005603)
(0.00053955082 1.192267e-05 0.0001953293)
(0.0005373012 1.0957299e-05 0.0001949866)
(0.00056518076 -3.9084673e-05 0.00013100077)
(0.00055852131 4.3327589e-06 0.00021052691)
(0.00054115426 2.4536856e-05 0.00018470203)
(0.00044653971 2.2121479e-05 0.00015163364)
(0.0005884934 -3.8366343e-05 0.00019668784)
(0.00053934112 2.1125269e-05 0.00017901294)
(0.000440033 -1.5842316e-05 0.00010747442)
(0.00046723898 6.5943424e-06 0.00016228391)
(0.00010525145 -3.0154006e-05 3.6109104e-05)
(0.00047471407 2.2964221e-05 0.00015092381)
(0.00056426019 1.7704375e-05 0.00018433443)
(0.00055296509 -8.3288114e-06 0.00013510736)
(0.00057896263 -3.3645885e-05 0.00017546487)
(0.000509919 -2.2734017e-05 0.00014685682)
(0.00033036734 -3.5123912e-05 5.4191547e-05)
(0.00057042365 1.7123382e-05 0.00017915456)
(0.000597308 3.1092829e-05 0.00017546511)
(0.00062728614 8.3232386e-05 0.00022825912)
(0.0005667458 1.3313104e-05 0.00017298754)
(0.00061626537 6.6705107e-05 0.00020149093)
(8.9398304e-05 3.509484e-06 4.2140316e-05)
(0.00057486579 -2.9088734e-05 0.0002120103)
(0.00056412557 5.2996909e-06 0.00017937539)
(0.00051949261 -3.1804398e-05 0.00019099185)
(0.00052667146 -1.7510301e-05 0.00019466355)
(0.00052240751 -8.59808e-06 0.00019795688)
(6.70153e-05 3.5994898e-06 4.6365224e-05)
(-1.922629e-05 2.5621329e-05 8.7280627e-06)
(0.00061038891 -5.2467589e-05 0.00015844834)
(0.00048210197 -9.4084259e-06 9.4335806e-05)
(0.00060626272 -4.5986082e-05 0.00021098699)
(0.00053187712 -5.3769764e-06 0.00020406865)
(0.00051361059 -3.0116428e-05 0.00014374767)
(0.00045458521 -2.3820986e-05 0.00011940218)
(0.00047084381 1.2596772e-06 0.00018340116)
(0.00058848529 -4.0444211e-05 0.000185473)
(0.00052005992 -4.1116148e-05 0.00015145417)
(0.00061022635 -4.180422e-05 0.00021038894)
(0.00043033889 -5.5314507e-05 0.00012973087)
(0.0005619172 7.1982769e-06 0.0002142742)
(0.00059007006 -4.8071579e-05 0.00018358672)
(0.00059153455 -4.6930988e-05 0.00016724343)
(0.00054287361 -3.5674692e-05 0.00020204232)
(0.00057217937 -2.9262704e-05 0.00021498316)
(0.00054029663 -3.3661599e-05 0.00020354776)
(0.00038385368 3.0783629e-05 0.00010055411)
(0.00061795234 -4.5260208e-05 0.00022474371)
(0.00052502799 -1.8698687e-05 0.00019837567)
(0.00040302441 5.4043057e-05 8.9558333e-05)
(0.00034749078 -4.6467668e-05 6.0636019e-05)
(0.00041600119 2.8147423e-05 0.0001158899)
(0.00034347666 4.2093025e-05 6.8102543e-05)
(0.00045423359 -6.7276377e-05 0.00013596568)
(0.00063006434 -4.9606441e-05 0.00023348076)
(0.00062753911 -4.5555186e-05 0.00023564257)
(0.00050243746 -1.5682084e-05 0.0001968841)
(0.00054431367 -4.4436021e-05 0.0002214031)
(0.00047302582 6.8530924e-05 8.8997138e-05)
(0.00054170275 -6.9065682e-06 0.00021009722)
(0.00055903273 -5.5701936e-05 0.00022349016)
(0.00041358505 2.592811e-05 0.00011743097)
(0.00045373903 2.4475568e-05 0.00014599402)
(0.00055275743 -4.0900819e-05 0.00022177996)
(0.00055120584 -4.6833911e-05 0.00022620457)
(0.00053158043 -3.6978915e-05 0.00020881692)
(0.00037004205 1.0466024e-05 0.00011842639)
(0.00041978564 -7.8102027e-05 5.0192348e-05)
(0.00043260945 -8.3396694e-05 6.4063762e-05)
(0.00054763846 -4.6150183e-05 0.00022748344)
(0.00055367798 -3.8114555e-05 0.00022215729)
(0.00045352737 2.9719586e-05 0.00014386445)
(0.00037305346 -2.4070244e-05 0.00015983181)
(0.00036508298 -2.6003408e-05 0.00015018866)
(0.00057136135 -3.433478e-05 0.00014463236)
(0.0004859527 2.1685779e-05 0.00016133593)
(0.00059990935 -4.1973371e-05 0.00015936409)
(0.00058299699 -5.1332523e-05 0.00019542511)
(0.00054699189 -5.4009158e-05 0.000234017)
(0.00055833911 -4.7074212e-05 0.00020098232)
(0.00054907486 -2.7762367e-05 0.0002285599)
(0.00050669171 -4.8443935e-05 0.00022137724)
(0.00054108874 -2.7226648e-05 0.00021174032)
(0.00050494296 -1.2401129e-05 0.00020280069)
(0.00055206622 -4.0680629e-05 0.00022346147)
(0.0005499026 -5.1246479e-05 0.00019708326)
(0.00057140957 -5.4544955e-05 0.00023200407)
(0.00048346359 1.9126118e-05 0.00016282302)
(0.00061681217 -2.297044e-05 0.00025506692)
(0.00051000034 1.4890303e-05 0.00017676855)
(0.00050638486 -3.4657756e-05 0.00022201894)
(0.00040925942 -4.0678397e-05 0.00018948211)
(0.00052463114 -4.6987439e-05 0.00024329449)
(0.00066168199 -6.614411e-05 0.00028018813)
(0.0006127187 -2.6717316e-05 0.0002538538)
(0.00060714607 -3.3141079e-05 0.0002487115)
(0.00058066468 -2.3216287e-05 0.00023175968)
(0.00044866145 2.1411882e-05 0.00015374189)
(0.00055193895 3.250809e-05 0.00017909745)
(0.00045564601 2.3154123e-05 0.00014266719)
(0.00060718178 -2.9596252e-05 0.0002513096)
(0.000497132 -2.2612721e-06 0.00018146688)
(0.00052095989 4.2294762e-05 0.00017638098)
(0.00046977481 4.3014122e-06 0.00016666749)
(0.00051932912 -4.2414034e-05 0.0002416499)
(0.00068219092 -7.4656254e-05 0.00029816619)
(0.00062380211 -6.2391075e-05 0.00028880489)
(0.00051730242 -4.9341536e-05 0.00016303187)
(0.00059120571 2.8489945e-05 0.00016439853)
(0.00050627808 -4.9260954e-07 0.00017043804)
(0.00052046171 -4.7424311e-05 0.00024509714)
(0.0005796854 -5.9898603e-05 0.00023189311)
(0.00049816244 -4.1100835e-05 0.00023169757)
(0.0005081699 -3.6080438e-05 0.00022455932)
(0.0003405695 -4.7874123e-05 0.00011729281)
(0.00068976958 -6.9853306e-05 0.00029527091)
(0.00059399723 -3.1802413e-05 0.00024816745)
(0.00063380831 -6.0008205e-05 0.00030399653)
(0.0005573002 -2.0750666e-06 0.00021269739)
(0.00036582583 -5.0087636e-05 0.00012515625)
(0.0002111442 -5.0435877e-05 3.7426739e-05)
(0.00049874371 -3.5648424e-05 0.00023483567)
(0.00036895228 3.0527361e-05 8.770633e-05)
(0.00050726209 1.0658553e-05 0.00014681225)
(0.00055607978 -3.7557478e-05 0.00024900135)
(0.00064533029 -5.0797682e-05 0.00030615043)
(0.00052451255 4.514031e-06 0.00010366995)
(0.00064992593 -5.3681981e-05 0.00031080865)
(0.00040060006 5.0909756e-05 9.0348421e-05)
(0.00059895765 -5.7815096e-05 0.00019749944)
(0.00059505027 -3.4499941e-05 0.00025363026)
(0.00057297674 -6.1300847e-05 0.00024496813)
(0.00056361584 -3.4530202e-06 0.00017349005)
(0.00042151833 -7.8862343e-05 5.9965498e-05)
(0.00061558143 -5.9878525e-05 0.00029078579)
(0.00061889569 -5.7200077e-05 0.00028657585)
(0.00061610935 -6.2024315e-05 0.00021673813)
(0.00055200286 -4.1626656e-05 0.00025271066)
(0.00041047242 7.8096764e-05 7.301317e-05)
(0.00055421255 -7.2754863e-05 0.00015846754)
(0.00043432775 -0.00010002132 7.4740867e-05)
(0.0006331091 -5.2002953e-05 0.0003157174)
(0.00056209825 -4.7192999e-05 0.00027583578)
(2.4178732e-06 1.7016721e-05 1.5675166e-05)
(0.00054614092 -1.1022252e-05 0.00021426153)
(0.00055991032 -5.1736247e-05 0.00028181599)
(0.00055430981 -4.8333861e-05 0.00027384644)
(0.00048409053 2.6914324e-05 0.00015448583)
(0.00054673243 -8.7596811e-06 0.00021726479)
(0.00062456648 -5.8749583e-05 0.00028688774)
(0.00064092162 -2.5286349e-05 0.00025760855)
(0.00062738461 -5.7194922e-05 0.00030840225)
(0.00049635286 -3.7372821e-05 0.00023436277)