/*--------------------------------*- C++ -*----------------------------------*\
  =========                 |
  \\      /  F ield         | OpenFOAM: The Open Source CFD Toolbox
   \\    /   O peration     | Website:  https://openfoam.org
    \\  /    A nd           | Version:  11
     \\/     M anipulation  |
\*---------------------------------------------------------------------------*/
FoamFile
{
    format      ascii;
    class       volVectorField;
    location    "10000";
    object      wallShearStress;
}
// * * * * * * * * * * * * * * * * * * * * * * * * * * * * * * * * * * * * * //

dimensions      [0 2 -2 0 0 0 0];

internalField   uniform (0 0 0);

boundaryField
{
    wall-fluid_domain
    {
        type            calculated;
        value           nonuniform List<vector> 
34907
(
(0.00057006199 8.1390883e-05 0.00016334216)
(0.00051196203 4.4062983e-06 0.00031620226)
(0.00065684299 -7.7395872e-05 0.00037024934)
(0.00066301052 -0.00011098421 0.0002915831)
(-9.5064218e-05 -6.4297717e-05 -5.0625316e-05)
(0.00067248804 -0.0001168024 0.0003130435)
(-9.8177257e-05 -6.6082466e-05 -3.7780322e-05)
(0.00043874791 -8.6053127e-05 0.00019069286)
(0.00056549123 -8.6582573e-05 0.00029274034)
(0.00056726011 9.8527952e-05 0.00022101458)
(0.00064999939 9.9151614e-05 0.00031641458)
(0.00057246577 8.9447752e-05 0.00025811996)
(0.00062025698 -6.8102566e-05 0.00013244195)
(0.00055316172 6.6206204e-05 0.00011991602)
(0.00062365371 8.2809537e-05 0.00032618454)
(0.00056796436 -8.16641e-05 0.00013961843)
(0.00046345569 6.9335729e-05 0.00012291839)
(2.2836748e-06 -1.1397026e-06 -4.2942006e-05)
(0.00075054109 9.4874165e-06 0.00045030009)
(0.00066259473 -0.00010959245 0.0002132002)
(0.00057521436 -9.3173718e-05 0.0002921964)
(0.00044991042 -8.7856841e-05 0.00020505266)
(0.00058295388 -1.4082236e-05 0.00035647959)
(1.4236141e-05 -1.510489e-05 2.4377389e-05)
(0.00053908038 8.7970874e-05 0.00018659333)
(0.00065618429 -0.00010679499 0.00019756573)
(0.00044275047 -8.5158211e-05 0.00018197677)
(0.00057363168 9.4453599e-05 0.00026471428)
(0.00047116425 -4.9660361e-05 8.82867e-05)
(0.00061780346 7.1328956e-05 0.00033587181)
(0.00055364199 9.3663614e-05 0.00018203557)
(0.0006526486 9.9256593e-05 0.00032594714)
(0.00044261118 4.6623415e-05 0.00010948655)
(0.00052873317 -5.93501e-05 0.00029302368)
(0.00053412089 -3.6884426e-05 0.00032036829)
(0.00063191376 8.3442031e-05 0.00034227145)
(0.0006101668 4.3082804e-05 0.00036559766)
(0.00052348441 -6.8815299e-05 0.00028926381)
(0.00037478451 -3.0768421e-05 0.00017149395)
(0.00066799034 -0.00010886992 0.00030226502)
(0.00064015977 -8.5976813e-05 0.00016881704)
(0.00060165243 -3.199838e-05 0.00037980235)
(0.00062567165 8.1923613e-05 0.00016442784)
(0.00051657113 1.9453371e-05 0.00031557229)
(0.00032825417 1.5332201e-05 0.00018590987)
(0.00033243019 5.190538e-06 0.00011707591)
(0.0005816975 -8.7867263e-05 0.00028515876)
(0.00050239641 8.5390288e-05 0.00020966078)
(0.00064604682 -5.4597311e-05 0.00037972311)
(0.00039229737 2.30675e-05 8.3860107e-05)
(0.00050666068 9.5199996e-05 0.00022445599)
(0.00068224427 -0.00011004039 0.00031785354)
(0.00064451656 0.00011179317 0.00024087285)
(0.00055825529 3.9760448e-05 0.00033395479)
(0.00058582051 -9.192726e-05 0.00018109444)
(-5.8076974e-05 -7.2004818e-05 -1.8497191e-05)
(0.00058913722 -9.9594857e-05 0.00025874508)
(0.00064617604 0.00010680676 0.00022532795)
(-3.4312829e-05 -7.9569566e-05 3.114876e-05)
(2.1764343e-05 -6.3955911e-05 -3.4889006e-05)
(5.3098729e-06 -5.5198351e-05 -9.4295221e-06)
(-1.1533074e-05 -2.8964677e-05 -4.0198587e-06)
(0.00064796018 -0.00011685647 0.00022693776)
(-5.2631651e-06 -7.3622313e-05 3.3884617e-05)
(-1.6951641e-05 -8.136452e-05 3.0801576e-05)
(0.00056495739 -5.2910055e-05 9.5057428e-05)
(0.0006425232 0.00010576844 0.00029018882)
(0.00059795757 8.6486901e-05 0.00018798054)
(1.2057937e-05 -5.3517191e-05 -1.864113e-05)
(0.00062426575 -9.1561604e-05 0.00017586339)
(0.00054241641 -9.142803e-05 0.00021102905)
(0.00050015463 5.1491624e-05 0.0001012589)
(0.00061275179 9.065761e-05 0.00030392354)
(0.00053589018 -9.1304315e-05 0.00022647196)
(0.00053262485 4.9355318e-05 0.00031640516)
(0.00062031362 9.5589684e-05 0.00017683251)
(0.00065621706 -6.7726892e-05 0.00037846772)
(0.00060859835 9.1212741e-05 0.0002960762)
(0.00043881595 -3.1916043e-05 0.00026690468)
(0.00064286994 0.00011048915 0.00025363394)
(0.00055420391 3.9167788e-05 0.00033348057)
(0.00067154874 -8.3640704e-05 0.00035381713)
(-2.7284177e-05 -3.4797243e-05 -8.1173334e-06)
(0.00056127874 7.3769178e-05 0.00029883834)
(0.00058687154 -9.2217315e-05 0.0002996705)
(0.00057507737 -6.8043741e-05 0.00014004411)
(0.00063597586 -7.8454477e-05 0.0001608441)
(0.00054954987 -0.00010141518 0.00022353394)
(0.00059122063 -9.7018368e-05 0.00026058452)
(0.00060866784 7.3337249e-05 0.00015451567)
(0.00056492507 7.7747036e-05 0.00029729211)
(0.00055973938 -4.2862637e-05 0.00032827857)
(0.00061826863 7.0642571e-05 0.00016104073)
(0.00052770158 4.0803497e-05 0.00031140308)
(0.00065928553 0.00010735221 0.00029219803)
(0.00065477209 0.00010495559 0.00028023521)
(0.00065534798 0.00010311474 0.00021283851)
(0.00064081848 0.00010216689 0.00021958583)
(0.00059355329 -0.00010147599 0.00025641886)
(0.00061099968 6.3304991e-05 0.00034895907)
(0.00058879766 -9.8336921e-05 0.00019163784)
(-8.5848434e-05 -6.769614e-05 -2.2670891e-05)
(0.00036758438 -2.6659296e-06 0.0001786041)
(0.00065259697 -0.00011363046 0.00022504872)
(0.00069044656 -7.5177027e-05 0.0003862368)
(0.00043323534 5.2806263e-06 0.00019898878)
(0.00075945649 9.429955e-06 0.00044718779)
(0.00062792224 -8.8422194e-05 0.00017173453)
(0.00068918026 -0.00010407058 0.00031183421)
(0.00052113999 -8.7392566e-06 0.00032200899)
(0.0006402072 0.00010827861 0.0002465471)
(0.00063606908 8.4585915e-05 0.00018120594)
(0.00051860005 1.7616451e-05 0.0003211764)
(0.00059229 5.2475108e-05 0.00034132281)
(0.00060668493 -2.0008305e-05 0.00037421891)
(0.00063557834 0.00010751255 0.00025695088)
(0.00063614754 0.00010525117 0.00023030278)
(0.00061042136 -5.5279998e-05 0.00034664634)
(0.00047428552 -7.9232779e-05 0.00018911223)
(0.0005936802 -8.4636075e-05 0.00030025979)
(0.00072731263 7.9663241e-05 0.00039371599)
(0.00066750339 -8.0729095e-05 0.00035283164)
(0.00040602851 -2.5042604e-05 8.3652893e-05)
(0.00042317264 3.7955856e-05 6.3579812e-05)
(0.00057657476 -9.029928e-05 0.00028737428)
(0.00065312666 -0.00011219402 0.00024000999)
(0.00048170644 -8.702238e-05 0.00020017725)
(0.00071808386 7.1968373e-05 0.00039588875)
(0.00062318575 -0.0001004144 0.0002612817)
(0.00068996258 -7.859499e-05 0.00038554057)
(0.00062805853 -0.00010148045 0.00028030848)
(0.00060386716 8.9313747e-05 0.00029031366)
(0.00067958198 0.00010028588 0.00020933219)
(0.00064601738 8.9817155e-05 0.00020087347)
(0.00040675935 -4.3383414e-05 9.1187403e-05)
(2.6131596e-05 -5.3166743e-05 -3.0225319e-05)
(0.00054571972 5.718494e-05 0.00010747187)
(-4.9938977e-08 -6.5535314e-05 4.8205309e-05)
(0.00058286144 9.4364529e-05 0.00025036989)
(0.00056965789 7.4901858e-05 0.00029205142)
(0.00052760161 -2.2554199e-06 0.00033281112)
(0.00059417564 -9.4970172e-05 0.00017544425)
(0.00058308902 -9.7541887e-05 0.00018578621)
(0.00040715763 -3.4181738e-05 0.00014536829)
(0.00037401931 2.580747e-05 0.00017090479)
(0.00036392448 -4.1777746e-05 0.00012790545)
(0.00060925809 9.5841016e-05 0.00028528138)
(0.00059778731 9.3433237e-05 0.00023889409)
(0.00035998983 2.3456387e-05 0.00015486338)
(-3.2755699e-05 -7.075476e-05 1.3224367e-05)
(0.00056659412 8.1360432e-05 0.00028365231)
(6.6538065e-06 -6.1002666e-05 4.5000682e-05)
(0.00038530627 -3.1237955e-05 7.9737952e-05)
(-4.637537e-06 -7.027142e-05 2.8449951e-05)
(-4.2238145e-05 -6.9327628e-05 1.1557897e-05)
(2.6381675e-05 -6.3480774e-05 -3.1010959e-05)
(0.0004254162 3.6800615e-05 0.0001000086)
(3.4769342e-06 -3.9872683e-05 -1.004502e-05)
(1.4009133e-05 -5.6124799e-05 -1.5652908e-05)
(-0.00013055806 -6.5186752e-05 -5.382109e-05)
(4.6760594e-06 -2.4460329e-05 -2.3202398e-06)
(0.00059820448 9.9157311e-05 0.00025127988)
(0.00056763049 -6.2107429e-05 0.00014241132)
(0.0002080465 1.3227783e-05 9.1216935e-05)
(0.00071094784 -8.5311322e-05 0.00017612794)
(0.00048040686 -3.7474363e-05 8.6380991e-05)
(0.00048513157 3.8784161e-05 0.00010202414)
(6.0800754e-05 -2.9321114e-06 3.7492272e-05)
(0.00063050595 -9.7772297e-05 0.00025096985)
(0.00058706271 6.5870384e-05 0.00014408371)
(0.00064516477 7.2706166e-05 0.00018833835)
(0.00063434708 -0.00010337889 0.00026145622)
(0.00056756578 -7.9894054e-05 0.00016043163)
(1.9597152e-05 1.3797009e-05 -2.7743148e-05)
(0.00037949278 -1.3587441e-05 0.00015050247)
(-7.2543114e-05 -3.1515136e-05 -2.7943363e-05)
(0.00068562818 -9.2617829e-05 0.0003529074)
(0.00035567908 2.9911085e-06 0.00017415504)
(0.00068156955 -8.0493387e-05 0.00035592212)
(0.00072780872 8.4833895e-05 0.00038623645)
(0.00064093209 9.8837247e-05 0.00022597953)
(0.00056939211 -8.2054528e-05 0.00027658564)
(0.0005204378 2.0873886e-05 0.00031935616)
(0.00060975996 -2.7314124e-05 0.00037082522)
(0.0004413438 -2.965655e-05 0.00015024761)
(0.00068329403 -0.00010750205 0.00029596366)
(0.00039777024 -1.9615305e-05 0.00017667359)
(0.00044091448 -3.1292639e-05 0.0001497161)
(0.00041828603 -3.4351259e-06 0.00017748343)
(0.00037823725 -1.3507651e-05 0.00020345835)
(0.00067795326 -0.00010692611 0.00024278118)
(0.00038401153 2.6456237e-05 0.00017921435)
(0.00072259921 8.6249621e-05 0.00037693524)
(0.00067074702 8.3988519e-05 0.00019880884)
(0.00011273944 -1.2359541e-05 1.7767414e-05)
(0.00040719426 3.262366e-07 0.00019068813)
(0.00039600171 2.1383871e-06 0.00021113471)
(-3.0136973e-05 -2.4624301e-05 -4.6269206e-06)
(0.00068539615 0.00011100097 0.00022645389)
(0.00042280337 2.5323578e-05 0.00018199253)
(0.00042971526 4.9309389e-05 0.00020517722)
(0.00052436175 1.5669676e-05 0.00032333906)
(-0.00010040212 -5.9311754e-05 -3.1219022e-05)
(0.00061258022 -2.0531055e-05 0.00037255485)
(0.00064797584 0.0001099418 0.00024250077)
(0.0006673025 -0.00010313066 0.00022582827)
(0.00049382583 -5.4498536e-05 9.1695408e-05)
(0.00044086233 4.1671164e-05 0.00010496999)
(0.00050547411 4.5395054e-05 9.9355947e-05)
(0.00062878792 -6.3537183e-05 0.00012820435)
(-7.7593636e-05 -6.3113768e-05 -1.6765617e-05)
(0.00026968472 3.1066831e-06 0.0001146773)
(3.5816631e-05 -1.6519918e-05 2.5034449e-05)
(0.00058101876 -9.373391e-05 0.00027198338)
(0.00066806793 -0.00010932064 0.0002483762)
(6.9606541e-06 2.7790885e-06 -3.9784338e-05)
(2.9935042e-06 -6.5035285e-05 3.8119706e-05)
(-7.8901074e-06 -7.4990576e-05 1.6113216e-05)
(0.00065930022 9.611367e-05 0.00029749427)
(2.6425647e-05 -1.6366223e-05 4.3918504e-05)
(0.00039294575 -6.1074005e-06 0.00015153974)
(0.00044712341 -1.2153505e-05 0.00014867614)
(0.0006529511 9.1357871e-05 0.00031555513)
(0.00044715611 2.0783451e-05 0.0001701085)
(0.00040750014 1.5161257e-05 0.00016776376)
(1.8185419e-05 -5.5832489e-05 -2.473538e-05)
(5.578743e-06 -4.8246672e-05 -5.9592768e-06)
(3.2169551e-05 -4.9550845e-05 -4.2697912e-05)
(9.7909247e-06 -2.7809909e-05 -4.4692089e-05)
(2.1387712e-05 -4.242299e-05 5.0669067e-05)
(0.00032938609 -2.1431074e-05 0.0001148091)
(0.00043062428 2.8521492e-05 0.00017377562)
(0.00040909476 -4.6608956e-06 0.00014599627)
(0.00046204751 -1.2772421e-05 0.00013595038)
(0.00026906439 -2.651173e-05 0.00010261872)
(0.00037500342 9.2216228e-06 0.00015011254)
(3.7018804e-05 -5.7542635e-05 -4.3914771e-05)
(1.3645089e-05 -5.4386073e-05 4.910506e-05)
(0.00038461631 1.0519092e-05 0.00014096014)
(0.00054734699 -3.297865e-05 0.00014090063)
(0.00067322524 9.9415905e-05 0.00031163619)
(0.00068019447 9.3983805e-05 0.00021079912)
(0.00059745762 9.4452671e-05 0.00024592525)
(0.0003948093 1.5654268e-05 0.00013496282)
(4.0201502e-05 -1.3899289e-05 3.4885888e-05)
(3.3432734e-05 -3.3989327e-05 5.1413962e-05)
(0.0006269229 9.1775211e-05 0.00020588557)
(2.3775654e-05 -6.2061202e-05 -2.7742533e-05)
(1.8068521e-05 -6.1527298e-05 4.3588831e-05)
(6.1603848e-06 -6.0482623e-05 4.2239758e-05)
(2.2384918e-05 -5.7431788e-05 -2.307702e-05)
(2.5958082e-05 -4.163146e-05 5.1257992e-05)
(0.00057316498 -9.2688629e-05 0.00017492917)
(2.0525268e-05 -3.7143535e-05 -3.3631421e-05)
(2.4536855e-05 -2.9980898e-05 -3.5626872e-05)
(3.2156773e-05 -1.4231897e-05 -5.1177157e-05)
(0.00042797465 2.7169858e-05 9.7355606e-05)
(0.00061663753 -6.1738548e-05 0.00012572955)
(3.3716969e-05 -6.3928595e-05 -3.3739793e-05)
(0.00057314218 -8.4512674e-05 0.00019012597)
(2.094877e-05 -5.5627166e-05 -2.6574579e-05)
(1.7909329e-05 -5.0958087e-05 5.6193362e-05)
(2.2900069e-05 -4.3885284e-05 4.2882501e-05)
(0.00060541748 0.00010065574 0.00026192966)
(1.3148128e-06 -1.8705222e-05 1.3490795e-05)
(0.0005932513 -9.2990699e-05 0.00023930289)
(5.7161221e-05 -1.7692295e-05 4.4414326e-05)
(0.00070424928 -0.00011014453 0.00029589888)
(-5.7499806e-05 -2.2015332e-05 -1.8470192e-05)
(8.3092944e-05 -2.7672831e-06 4.0241421e-05)
(0.00045923898 -2.7449707e-06 0.00013672172)
(-0.00010721875 -4.3274573e-05 -5.2233351e-05)
(0.00041947326 2.0811525e-05 0.00012647766)
(0.00037569004 2.5606087e-06 0.00017153405)
(5.4235436e-05 -2.8329332e-05 -2.9644519e-05)
(-2.8205812e-05 -1.6604938e-05 1.1256627e-06)
(0.00044727727 2.9434564e-07 0.00019033448)
(0.00047184677 3.9950359e-05 0.00011234936)
(0.0005620799 -2.2676019e-05 0.00014166695)
(-8.3200616e-05 -3.1415041e-05 -2.8787035e-05)
(-6.6568891e-05 -4.2226628e-05 -2.5866628e-05)
(0.00041445666 -2.8124595e-05 9.6503757e-05)
(-0.00011216525 -3.0148259e-05 -5.8410594e-05)
(0.00044622075 3.3546309e-05 0.00011349185)
(0.00049630916 2.0674354e-05 0.00016048857)
(-8.3322583e-06 -6.9978588e-05 3.363251e-05)
(-9.2153722e-05 -2.5362701e-05 -3.3543914e-05)
(0.00034556263 -2.7519579e-05 9.1910962e-05)
(0.00052122437 4.9557276e-05 0.00012364796)
(-0.00010334512 -2.30052e-05 -4.4377754e-05)
(-4.4496291e-05 -5.3158522e-05 -2.6628923e-06)
(-0.00012555755 -3.8264445e-05 -4.6853903e-05)
(0.00039227006 -1.0010517e-06 0.00013292961)
(0.00048499693 -5.3404729e-05 0.00011932499)
(-8.9673672e-05 -2.283098e-05 -2.8091224e-05)
(-0.00013192679 -2.2349468e-05 -5.4845757e-05)
(-0.00011855824 -4.7094353e-05 -4.3906594e-05)
(0.00049386601 2.0039313e-05 0.0001497076)
(-0.00012735309 -2.5040399e-05 -6.0524076e-05)
(-0.00014281267 -1.3655111e-05 -6.6526112e-05)
(-0.00010171911 -1.6017568e-05 -4.0306721e-05)
(-0.00010393346 -4.844091e-05 -4.8169921e-05)
(-0.00012877193 -1.4273567e-05 -5.082011e-05)
(0.00043088946 -9.4479363e-06 0.0001091677)
(-0.00014735949 -2.0229882e-05 -6.2357509e-05)
(0.00054947078 -3.4462627e-06 0.00014358924)
(-5.0710164e-05 -2.1240943e-05 -1.4891185e-05)
(-0.00016311201 -1.1404014e-05 -7.1913378e-05)
(-0.00014506542 -9.6727906e-06 -7.3478171e-05)
(4.652183e-05 -1.6289015e-05 5.6646293e-05)
(6.3151194e-05 -1.6015919e-05 4.902129e-05)
(-0.00014504395 -3.041404e-05 -7.0338355e-05)
(0.00055727539 -3.1976867e-05 0.00013657705)
(2.2567586e-05 -5.3006543e-05 4.8793503e-05)
(0.00052947413 8.6647259e-06 0.00013416758)
(0.00043303983 3.5936944e-05 0.00010023789)
(0.00018086798 1.1130554e-05 7.853136e-05)
(-0.00016289356 -2.4363528e-05 -6.7743134e-05)
(7.2817509e-05 -2.1229524e-05 -6.2969244e-06)
(0.00054121347 1.2342734e-05 0.00012973344)
(0.00039030793 -1.9567891e-05 0.00012264652)
(0.00050811367 1.9570868e-05 0.00015130531)
(2.9535788e-05 -2.5217704e-05 -3.2420895e-05)
(2.7127144e-05 -2.2011817e-05 -3.1859842e-05)
(0.00051159943 5.7540569e-06 0.00013663731)
(0.00049398738 -2.8315076e-05 0.0001202624)
(4.5146145e-05 -3.7770438e-05 6.3161996e-05)
(4.1212149e-05 -4.2100701e-05 6.7220089e-05)
(2.9463502e-05 -4.6093939e-05 4.4084785e-05)
(-8.1097248e-05 -6.1200668e-05 -3.6037807e-05)
(0.00041914896 8.0194329e-06 0.00010478484)
(-0.00013574755 -4.1642039e-06 -6.0789821e-05)
(-0.00017040665 -4.1509602e-06 -8.87339e-05)
(0.00041031149 -7.8142211e-06 0.00014094147)
(0.00061619032 9.5398378e-05 0.00022898502)
(0.0004245566 1.2648832e-06 0.0001006215)
(0.00047253957 -1.1594972e-07 0.00010773839)
(0.00047052181 5.3101972e-08 0.00012825114)
(0.00043469596 7.9166878e-06 0.0001438356)
(0.00047566545 -4.4031975e-06 0.00010734566)
(-0.00017948053 -4.244219e-06 -9.3438179e-05)
(0.00054192691 3.17021e-06 0.00012284846)
(-0.00015666796 -1.3655734e-05 -7.5826157e-05)
(0.00053591164 -1.2210244e-05 0.00012451419)
(-5.3605697e-06 -6.3106892e-05 4.6327791e-05)
(-0.00015943929 3.3895076e-06 -8.7166041e-05)
(5.2979054e-05 -3.5286966e-05 6.9173717e-05)
(-0.00019096626 3.2061847e-06 -8.5885011e-05)
(-3.6848953e-05 -5.4739048e-05 1.2422792e-05)
(0.00049408434 -1.8481393e-05 0.00010922395)
(0.00039112135 8.0701334e-06 9.9109713e-05)
(0.00055335757 7.2396454e-06 0.00013287012)
(8.9993286e-05 1.8085241e-06 5.0329417e-05)
(0.0005035255 -1.1527719e-05 0.00010923161)
(-7.3135144e-05 -6.2587266e-05 -1.5629062e-05)
(7.0771398e-05 -1.3869611e-05 5.660809e-05)
(8.870735e-06 -4.0191337e-05 -1.1772885e-05)
(0.0005039939 -1.2318231e-05 0.00013746454)
(-0.00019304186 -9.0932535e-07 -8.9844698e-05)
(4.3030494e-05 -3.599928e-05 6.5249904e-05)
(0.00062952519 0.00010042572 0.00024339336)
(5.8121161e-05 -4.3437295e-05 6.5119989e-05)
(-0.00012660486 -3.9862933e-05 -4.4871805e-05)
(2.9479284e-05 -5.012889e-05 5.8566978e-05)
(-0.00013891871 -3.2087217e-05 -7.3343755e-05)
(-0.00014525721 7.1730974e-06 -7.3531405e-05)
(0.00036419729 -2.7085111e-05 0.00012552013)
(1.531443e-05 -4.8895358e-05 -2.2915096e-05)
(0.00062554408 -9.0713187e-05 0.00030613716)
(0.0003676253 2.8442109e-05 0.0001480713)
(0.00056115398 -4.0928608e-05 0.00033549543)
(0.00068662978 -9.1177869e-05 0.00034869014)
(0.00052991816 2.9274969e-05 0.00032344003)
(0.00064110096 9.8500289e-05 0.00022082018)
(0.00023585191 1.5082492e-05 9.8897297e-05)
(5.6869778e-05 -2.7893414e-05 6.9804699e-05)
(0.00011368257 2.6108244e-06 5.8435826e-05)
(0.00011187351 -8.5011425e-06 1.2117778e-05)
(3.2731926e-05 -4.9025872e-05 -3.6408158e-05)
(0.0005028164 3.9760848e-05 0.00012066044)
(2.7480574e-05 -5.3097796e-05 -3.3774997e-05)
(-0.00016519539 -9.7794986e-06 -7.4047095e-05)
(3.5420427e-06 -2.7523591e-05 1.2006806e-05)
(0.00076319603 -7.8530425e-05 0.00014342376)
(7.6996642e-05 -1.5844854e-05 6.0385283e-05)
(3.4734815e-05 -3.8958434e-05 -4.20108e-05)
(5.8718766e-05 -3.6606403e-05 5.9306738e-05)
(-0.00010817518 -4.8727215e-05 -4.4776479e-05)
(7.7451135e-05 -2.0426505e-05 7.3509238e-05)
(0.00040654791 -3.0041248e-05 0.00013149018)
(9.7140863e-05 -1.7504288e-05 7.5095311e-05)
(7.2324243e-05 -4.1495983e-05 7.871957e-05)
(-0.00014978465 -2.9562185e-05 -6.7364671e-05)
(-0.00014340136 -2.2035835e-05 -7.7182745e-05)
(0.00035638591 2.3552768e-06 0.0001203424)
(9.2350651e-05 7.4253584e-06 5.3119603e-05)
(8.981462e-05 -1.8689704e-05 6.5094145e-05)
(0.00037910313 1.9035099e-05 0.00014266609)
(3.2394925e-05 -4.8393022e-05 5.928915e-05)
(0.00040251293 1.0725905e-05 8.1360385e-05)
(1.4883758e-05 -4.8056417e-05 5.4971778e-05)
(-1.080519e-05 -5.9153727e-05 2.4500377e-05)
(-0.00020058693 5.5511611e-06 -9.6577343e-05)
(0.00036835648 -7.0355155e-06 0.00010834733)
(-3.2158398e-05 -5.4955541e-05 3.1382422e-05)
(4.7055935e-05 -2.4763439e-05 -2.871117e-05)
(-4.9969062e-05 -5.8144153e-05 -9.4367876e-06)
(0.00065976757 -6.2127791e-05 0.00015208858)
(0.0003454464 2.943254e-05 8.3432601e-05)
(7.8667214e-05 -3.1456721e-05 8.2636552e-05)
(9.632932e-05 -1.3110006e-05 8.0749797e-05)
(-7.4026641e-05 -5.3259249e-05 -2.2225833e-06)
(-9.3901761e-05 -5.3956019e-05 -1.1407719e-05)
(0.00062133549 7.7804918e-05 0.00031935144)
(7.0504349e-05 -4.6450442e-05 6.7769671e-05)
(2.9718382e-05 -3.8287279e-05 -3.42916e-05)
(-0.00020805678 1.7662274e-05 -0.00011062161)
(0.0001177994 1.1919857e-05 6.5857283e-05)
(-0.00010912525 -4.4278752e-05 -3.4346432e-05)
(0.00066991609 -0.00011236303 0.00024731917)
(-0.00016370353 9.994881e-06 -7.3374615e-05)
(-1.4197143e-05 -1.7443587e-05 1.1370584e-06)
(-0.00013040605 -4.1200041e-05 -3.7407505e-05)
(0.00052770477 -2.239524e-05 0.00031834032)
(-9.9161524e-05 -5.2798678e-05 -6.176012e-06)
(0.00053276907 1.9004895e-05 0.00032171152)
(8.7231458e-05 -1.8800243e-05 6.967641e-05)
(-0.00019093195 -1.2195053e-06 -0.00010580904)
(-0.00012366481 -3.994034e-05 -4.6155715e-05)
(5.5389634e-05 -2.7035774e-05 -2.4305185e-05)
(-0.0001521511 -2.0995047e-05 -7.305815e-05)
(0.00015145714 1.8089979e-05 7.8611003e-05)
(-0.00014550347 -3.7435538e-05 -4.7508588e-05)
(0.00015462657 1.7069086e-05 7.5863584e-05)
(0.00062080073 8.4265642e-05 0.00031342954)
(0.00012339085 6.6196131e-06 6.4846328e-05)
(-4.5024315e-05 -2.6010136e-05 -7.5131168e-06)
(-0.00012931437 -7.6944516e-06 -5.4717508e-05)
(-0.00020871811 1.79937e-05 -0.00010727483)
(-0.00016875209 -1.7040101e-05 -9.5500593e-05)
(-0.00020621419 1.7720715e-06 -0.00010267281)
(-0.00018939535 -1.4529371e-05 -9.1087805e-05)
(1.087342e-05 -4.8629265e-05 -6.9262029e-06)
(-0.00022852356 2.2691657e-05 -0.00011099332)
(0.00041020807 -2.5377728e-05 0.00012859363)
(0.0004997303 -3.1974427e-05 9.0578051e-05)
(0.00059965794 5.4664813e-05 0.00011208856)
(-0.00017469356 5.6244622e-07 -9.9045325e-05)
(0.00039038149 -2.1030056e-05 0.00010257306)
(0.00046244109 2.5918207e-05 0.00010051689)
(0.00018375119 1.0252974e-05 7.8032211e-05)
(-9.866399e-05 -1.0947759e-05 -4.836579e-05)
(0.0002740644 -3.4871703e-05 0.00010350951)
(2.8720641e-05 -4.8047767e-05 -3.2513694e-05)
(0.00046315765 3.8143541e-05 0.00015105126)
(-0.00021707945 7.4290794e-06 -0.00011253593)
(0.00072410135 -0.00011085076 0.00032320026)
(-0.0001895722 1.6120864e-05 -0.00011013623)
(0.00017957941 1.2446625e-05 7.9289902e-05)
(0.0003466479 2.8128948e-05 0.00013413703)
(-0.00020685315 2.9786051e-05 -0.00010416974)
(1.2984662e-06 -4.5928799e-05 4.5275002e-05)
(-0.00011944118 -3.4100833e-05 -4.8756365e-05)
(2.2488787e-05 -4.4515956e-05 -2.624408e-05)
(0.00022960565 1.6661858e-05 8.857655e-05)
(0.00026219198 2.6989905e-05 9.982281e-05)
(-0.00021765654 1.3785413e-05 -0.00012301459)
(1.7292821e-05 -5.1860883e-05 -2.0162262e-05)
(0.0005052538 2.4739197e-05 0.00011173236)
(-6.0359601e-05 -5.75521e-05 -9.2893414e-06)
(0.00065451614 -0.00010364685 0.00022601638)
(-0.00012763773 -2.9956746e-05 -6.5213955e-05)
(-0.00017238606 1.1507743e-05 -6.9837841e-05)
(8.4092287e-05 -3.8652885e-05 7.739974e-05)
(-0.00021855452 3.1786905e-05 -0.00013103928)
(0.00059504871 -9.5982451e-05 0.0002330379)
(0.00066653803 -3.2952778e-05 0.00015983039)
(-8.4801212e-05 -4.921067e-05 -9.4031593e-06)
(-0.00014386118 4.2854928e-06 -6.3819424e-05)
(-0.00018893156 -4.5926121e-06 -0.00010382451)
(-0.00016111731 2.3936668e-05 -8.9293387e-05)
(-0.0001591403 2.8240535e-05 -9.1948526e-05)
(-0.00022981064 4.6707046e-05 -0.00014277535)
(0.00062631982 4.7125946e-05 0.00036677791)
(-0.00021536487 2.8573411e-05 -0.00014004201)
(0.00061977461 -5.2682522e-05 0.00035841318)
(-0.00022376437 3.5401323e-05 -0.00011431204)
(0.00046033517 -2.010066e-05 0.00011249124)
(-0.00020174235 5.6921526e-05 -0.00012985925)
(-0.00020704618 1.217222e-05 -0.00011826695)
(0.00064309814 5.6984824e-05 0.00036767691)
(0.00019439299 2.0803913e-05 7.666254e-05)
(0.00048458477 3.4019615e-07 0.00012239502)
(6.2367752e-05 -2.1731149e-05 -1.9872303e-05)
(-0.00020400653 5.6636265e-05 -0.00013629636)
(-0.00019255124 4.0304025e-05 -0.00012196823)
(-0.00022990657 4.9460528e-05 -0.00012883508)
(0.00039721171 -3.2284463e-05 0.00012995444)
(0.00018857131 1.419938e-05 7.6644633e-05)
(-0.00024281909 5.7903125e-05 -0.00012438512)
(4.4209605e-05 -4.1352549e-05 -3.4481579e-05)
(-0.0002293372 3.473243e-05 -0.00011163511)
(3.9754807e-05 -6.6927927e-05 5.7266491e-05)
(0.00048858291 3.6722646e-05 0.00012612023)
(2.759627e-06 -2.2554333e-05 -6.0525374e-07)
(7.553348e-05 -1.0230557e-05 -1.0084604e-05)
(-0.00010964603 -6.9254072e-05 -4.1103025e-05)
(-1.9995548e-05 -4.8142218e-05 3.6335526e-05)
(0.00051053614 1.8291025e-05 0.00011403056)
(0.00023973456 2.4842446e-05 9.1616621e-05)
(0.00067605775 -6.8173185e-05 0.00038593058)
(-0.00022015853 5.2335091e-05 -0.0001236371)
(-0.00023505214 4.5162212e-05 -0.00011554937)
(4.0416515e-05 -3.7358018e-05 -2.588348e-05)
(0.00050691566 2.5812004e-05 0.00010927142)
(-1.6704518e-06 -2.1870285e-05 -1.9419012e-06)
(0.00061884389 7.8723744e-05 0.00019040596)
(0.00041085725 3.6898799e-05 9.8213528e-05)
(0.00052692717 4.515191e-06 0.00010941839)
(-0.00016331454 2.8874644e-05 -7.5170744e-05)
(-0.00014925919 2.5555024e-05 -7.0418708e-05)
(0.00053818792 6.0369361e-06 0.0001333437)
(-0.00020934706 5.3323995e-05 -0.00010214661)
(0.00044575612 -2.209253e-06 0.00013917502)
(0.00060529243 -3.9415651e-05 0.00010638081)
(0.0006753055 -2.8193642e-05 0.00014900259)
(-0.00019282874 4.750098e-05 -9.4344054e-05)
(-0.00018387989 4.1026804e-05 -7.7126924e-05)
(-0.00010836092 -1.1497076e-05 -4.4170409e-05)
(-5.7598375e-05 -1.3832752e-05 -2.0966129e-05)
(0.00051885123 -1.1348892e-05 0.00010812221)
(0.00071374695 -9.1492769e-05 0.00017162997)
(0.00071067171 -9.4713047e-05 0.0001837655)
(0.00064825042 7.1763469e-05 0.00018829747)
(3.6295632e-05 -5.1368496e-05 -2.8364145e-05)
(0.00069840985 6.7013551e-05 0.00019998427)
(0.00032589352 -8.5076213e-06 0.00012073461)
(2.7501358e-05 -3.0573284e-05 -2.7059628e-05)
(0.00039080181 -1.4162682e-06 0.00014185372)
(3.9947112e-05 -3.3700544e-05 -1.4472789e-05)
(2.4208976e-05 -4.248057e-05 -2.560725e-05)
(4.6924545e-05 -2.1532983e-05 -2.106542e-05)
(5.6178123e-06 -3.743912e-05 -1.9418071e-05)
(1.7146875e-05 -2.375848e-05 -2.775982e-05)
(4.5307073e-05 -1.2212027e-05 -1.2216068e-05)
(7.4419084e-06 -3.8203786e-05 -1.4882714e-05)
(5.9803923e-06 -3.4837844e-05 -1.6037268e-05)
(1.553932e-05 -3.4328226e-05 -2.4601098e-05)
(5.5496003e-05 -9.2193949e-06 5.2512702e-06)
(-9.4219641e-05 -7.2138999e-06 -3.0895048e-05)
(4.5658826e-06 -2.7186443e-05 1.1135527e-06)
(3.8333885e-05 -2.2906426e-05 -1.6226547e-05)
(4.9825654e-05 -8.9910202e-06 3.1244586e-06)
(6.4240169e-05 -7.8312683e-06 1.1848258e-05)
(6.9869331e-05 -1.5187886e-05 8.6406056e-07)
(0.00054040533 5.7305905e-05 0.00030661836)
(0.00046189051 -3.7045626e-05 0.0001357135)
(6.4166607e-07 -2.905078e-05 -5.1272006e-06)
(0.00049288172 -2.7366532e-05 0.00013704054)
(0.00011375655 -1.2094043e-05 1.6709396e-05)
(0.00067270368 -7.9981141e-05 0.00036395395)
(-4.1129616e-05 -2.7825607e-05 -9.3271873e-06)
(0.00060475696 5.6368874e-05 0.00014419283)
(0.00011203433 -1.0778249e-05 1.5386129e-05)
(0.0004794316 -3.4366942e-05 0.00013491623)
(0.00061318036 6.0418784e-05 0.00010693397)
(0.00047410594 4.5050719e-05 0.00014449974)
(-6.8061133e-05 -1.8804728e-05 -1.8740029e-05)
(0.00025950639 -2.4315512e-05 9.3062064e-05)
(4.0387447e-06 -2.3229415e-05 -3.284293e-06)
(0.00022905932 -2.6054373e-05 8.1578011e-05)
(2.0596619e-06 -3.4906848e-05 -2.2883111e-05)
(0.00059907822 -3.4781263e-05 0.00011845563)
(0.00051765538 3.546812e-05 0.00013454399)
(2.8916123e-06 -2.4733946e-05 -2.3422721e-05)
(0.00052071072 -5.0023082e-06 0.00012697764)
(0.00049760998 4.2225044e-05 0.0001382791)
(-8.5382468e-07 -2.5520621e-05 -2.8265645e-06)
(-1.8845331e-07 -3.4435038e-05 -4.1569624e-06)
(-2.182955e-06 -2.0569138e-05 -1.3967926e-06)
(-7.8360908e-07 -3.1238569e-05 -2.6738892e-06)
(0.00059578174 2.6276413e-05 0.00010546533)
(3.2562872e-05 -1.3624287e-05 -2.3624527e-06)
(0.00052891346 -3.5578605e-06 0.00010067052)
(0.00051046343 2.1485592e-05 9.9060404e-05)
(0.00051620352 9.971141e-06 0.00011682297)
(-1.224567e-06 -3.4649477e-05 -2.3446827e-05)
(-1.4353596e-05 -3.1876133e-05 -9.0662012e-07)
(7.6196396e-06 -4.1528656e-05 -1.6344482e-05)
(0.0001104617 -1.0268492e-05 1.1988232e-05)
(0.00067293214 -9.3986903e-05 0.00019443112)
(-6.3526081e-06 -3.4215831e-05 -3.4757026e-07)
(0.00018577354 2.2752866e-05 8.188958e-05)
(2.3641568e-06 -3.5637146e-05 -2.4388832e-05)
(0.00011210644 -1.4943014e-05 1.9469934e-05)
(0.00033731018 4.6952036e-07 0.0001409184)
(0.00060386264 -2.2692309e-05 0.00011809677)
(2.7235821e-06 -3.4141265e-05 -1.2820121e-05)
(0.00021059504 -2.2580622e-05 8.0801204e-05)
(0.00032195441 1.7914596e-05 0.00011100281)
(-4.3807125e-05 -1.5031603e-05 8.167857e-06)
(0.00037818088 1.6173604e-07 0.00015574193)
(0.00060764553 -1.916861e-05 0.00011054667)
(0.00052776657 -1.0879486e-05 0.00010291275)
(2.09442e-06 -1.587541e-05 -2.3104477e-05)
(6.053016e-06 -4.5437928e-05 -1.6235836e-05)
(2.9138637e-06 -3.5405384e-05 -2.7434557e-05)
(0.00042020882 2.7139703e-05 9.9243399e-05)
(1.4602785e-05 -4.7563925e-05 -4.1424407e-05)
(-1.0820694e-06 -2.6194155e-05 -2.9550948e-05)
(0.00037934786 2.8175962e-05 0.00014007665)
(0.00062424837 -3.149412e-05 0.00011544088)
(5.3353185e-06 -1.2534416e-05 -3.0039817e-05)
(1.2206476e-05 -4.5000744e-05 -6.8116036e-06)
(-0.00020135252 1.946339e-05 -0.00012824398)
(1.7721033e-05 -3.6083679e-05 -5.3575119e-05)
(2.4593214e-05 -5.7141784e-05 -3.2750905e-05)
(7.9985177e-07 -1.0749871e-05 -2.8040271e-05)
(6.9812292e-06 1.0930985e-06 -1.1671121e-05)
(0.00019890215 2.1309718e-05 7.5798751e-05)
(0.00068123157 9.2512459e-05 0.00030679083)
(0.00066512719 -0.00010675656 0.00027068594)
(-5.6549549e-05 4.0992511e-06 6.4583083e-06)
(0.00023042538 2.4491179e-05 8.4010563e-05)
(3.4242847e-05 -3.6534324e-05 -4.0329568e-05)
(3.8840695e-05 -5.7907256e-05 -1.2179021e-05)
(2.7209071e-05 -4.9817401e-05 -4.4416942e-05)
(4.1076757e-05 -4.7176314e-05 -5.3990112e-06)
(5.361307e-05 -5.0143746e-05 -4.2303063e-05)
(0.00057920494 -5.6441964e-05 0.00013309854)
(5.7481352e-05 -5.8068074e-05 -2.8885713e-05)
(0.0004098804 -3.8564104e-05 0.00013726114)
(0.00059828107 5.5541906e-05 0.0001384308)
(4.5019716e-05 4.148391e-06 1.1303879e-05)
(0.00076322876 0.00011302669 0.00031719503)
(-0.00013246636 1.6962125e-05 -4.478702e-05)
(-0.00020373615 6.5497936e-05 -0.00013737946)
(-0.00015701748 3.3893948e-05 -7.0349849e-05)
(-0.00017719267 5.5231206e-05 -0.00010479173)
(-0.00020119706 4.0953666e-05 -0.00014795755)
(4.2242202e-05 -4.4333001e-06 1.4062703e-05)
(0.00037967498 2.8186697e-05 0.0001369321)
(8.4719233e-05 -6.6516976e-05 -2.5198189e-05)
(0.00010705856 -1.4317119e-05 3.4797496e-05)
(-0.0002154682 5.8499471e-05 -0.00010312517)
(0.00028974364 -2.1078791e-05 9.1682249e-05)
(5.1225641e-06 -4.0096939e-06 -1.3028119e-05)
(1.5760372e-05 -2.0807473e-06 2.4383087e-06)
(4.397293e-05 -2.7969578e-05 -3.3999709e-05)
(8.6372217e-05 -5.6346927e-05 -2.7849686e-05)