/*--------------------------------*- C++ -*----------------------------------*\
  =========                 |
  \\      /  F ield         | OpenFOAM: The Open Source CFD Toolbox
   \\    /   O peration     | Website:  https://openfoam.org
    \\  /    A nd           | Version:  11
     \\/     M anipulation  |
\*---------------------------------------------------------------------------*/
FoamFile
{
    format      ascii;
    class       volVectorField;
    location    "10000";
    object      wallShearStress;
}
// * * * * * * * * * * * * * * * * * * * * * * * * * * * * * * * * * * * * * //

dimensions      [0 2 -2 0 0 0 0];

internalField   uniform (0 0 0);

boundaryField
{
    wall-fluid_domain
    {
        type            calculated;
        value           nonuniform List<vector> 
50462
(
(0.0004815596 -3.97247e-05 0.00035689196)
(0.0005445089 -6.1564607e-05 0.00042749004)
(0.00055305012 -4.0636862e-05 0.00033287051)
(0.00051154953 -3.1721294e-05 0.00030516496)
(0.00049491454 6.8821703e-05 0.00034528642)
(0.0005665637 -2.5078017e-05 0.00055420929)
(0.00053920616 -3.6719221e-05 0.00052391973)
(0.00057619809 -1.5169701e-05 0.00057765174)
(0.00060777894 -4.4047947e-05 0.00037316226)
(0.00054266267 -3.4804984e-05 0.00053266471)
(0.00063218206 1.3720568e-05 0.00062942477)
(0.00051923877 -2.3551775e-05 0.00031113564)
(0.00052806751 4.3588901e-06 0.00053980032)
(0.00055586176 2.0709649e-05 0.00055084094)
(0.0005548509 1.9719087e-05 0.00054680096)
(0.00062626212 1.2091676e-05 0.00062183181)
(0.00052416572 -1.9130818e-05 0.0003154898)
(0.00049608558 -8.9777839e-07 0.00050935053)
(0.00055914937 -1.1639522e-05 0.00056689053)
(0.00057394622 -1.3217727e-05 0.00034073996)
(0.00057130455 2.3952812e-05 0.00056419683)
(0.00036971495 -1.988324e-05 0.00022428011)
(0.00049358223 3.5924436e-06 0.00050140958)
(0.00048561177 -8.3562328e-06 0.00030825469)
(0.00061263005 1.3883903e-05 0.0006190161)
(0.00045662956 -1.026978e-05 0.00027871119)
(0.00057213734 2.2660369e-05 0.00056079269)
(0.00050255797 -4.0918314e-05 0.00048307079)
(0.00055965105 3.3975809e-05 0.0005514858)
(0.00047608514 -3.1875385e-06 0.00048084556)
(0.00049001631 -2.0256217e-05 0.00032778653)
(0.00062919228 1.6750467e-05 0.00063098806)
(0.00064740249 1.3225404e-05 0.00064679571)
(0.00046970827 -8.7501782e-06 0.0002936961)
(0.000510258 1.905324e-05 0.00050579171)
(0.00050450731 2.1063089e-06 0.00051064814)
(0.00064944528 1.1087008e-05 0.00064426345)
(0.00050985075 1.3062789e-06 0.00050580472)
(0.00066304234 2.6044215e-05 0.00065544032)
(0.00062263567 1.820466e-05 0.00063070316)
(0.00055184989 -2.1930744e-05 0.00032500734)
(0.00047867854 -8.9652774e-07 0.00029850607)
(0.00048063841 -9.7244424e-06 0.00030849597)
(0.00065236439 2.7703158e-05 0.00065121205)
(0.00050001737 2.6558583e-05 0.00049744897)
(0.00064345035 3.2434917e-05 0.00064039529)
(0.00055772157 1.1099262e-05 0.00057334137)
(0.00057461633 1.4932337e-05 0.0005757675)
(0.00059618604 3.037288e-05 0.00058559141)
(0.00050714391 2.3962693e-05 0.00049148122)
(0.00058212963 -6.7085089e-05 0.00044939128)
(0.00048685366 -1.3825089e-05 0.00028258472)
(0.00055936898 1.9906282e-05 0.0005654716)
(0.00045505463 -9.5099777e-06 0.00028128726)
(0.00061321579 -6.6046475e-05 0.00057300582)
(0.00046115841 4.7406178e-06 0.00026812307)
(0.00060962109 -6.2516341e-06 0.0003569086)
(0.00062882337 -7.0603103e-05 0.0005753261)
(0.00061501425 -4.9635742e-06 0.00036055625)
(0.0008117284 -5.325011e-05 0.00047634151)
(0.00059246511 -4.7317062e-05 0.00036397162)
(0.00039409623 -1.5708845e-05 0.00023706369)
(0.00044472623 -1.7220694e-05 0.00031192248)
(0.00053043323 -3.4964884e-05 0.00038872195)
(0.00055124679 -2.4880527e-05 0.00033180218)
(0.0008519347 -2.9950738e-05 0.00048447183)
(0.0005700542 -2.861344e-05 0.00033555012)
(0.00046424923 2.1461444e-06 0.00027549944)
(0.00045365396 -5.9191076e-06 0.00026634517)
(0.00053340484 4.1972661e-06 0.00054845525)
(0.00064579578 -7.8603401e-05 0.00056734373)
(0.00061953813 -7.2842079e-05 0.00055290584)
(0.00058037392 -6.298831e-05 0.00049399341)
(0.00057881047 -6.8853681e-05 0.00049191528)
(0.00062011964 9.5298884e-06 0.00061359016)
(0.00050474965 1.4927288e-05 0.00050443143)
(0.00055815889 -6.1329654e-05 0.00042233115)
(0.00054335978 -6.8018168e-05 0.00044207522)
(0.00049659725 -4.091933e-05 0.00037760274)
(0.00043986401 -2.5889482e-05 0.00031695181)
(0.00059986437 5.7785066e-06 0.00061393591)
(0.00047769279 -4.4602202e-05 0.00036318658)
(0.00050149614 -2.0288383e-05 0.00050311307)
(0.00058858868 -4.721352e-06 0.00034448605)
(0.00060839465 9.8552254e-06 0.00060664793)
(0.00050641126 -2.0738217e-05 0.00050010458)
(0.00057984789 -1.4417029e-05 0.0005748502)
(0.00051136215 -6.393431e-06 0.00052217595)
(0.0003942082 -1.2958803e-05 0.00040870518)
(0.00050517315 -5.5068944e-06 0.00051124542)
(0.00052932202 -1.1400749e-06 0.00052973324)
(0.00043264477 3.721609e-05 0.00028210998)
(0.00042370632 3.0033969e-05 0.00027601261)
(0.00046991227 -2.507328e-06 0.00048285164)
(0.00052731623 4.5028754e-06 0.0005421851)
(0.00051740556 -7.626014e-06 0.00052202913)
(0.00042721616 2.6422133e-06 0.00043069841)
(0.00054728297 9.1971531e-06 0.00055245559)
(0.00047341834 3.093105e-06 0.00047585538)
(0.00055690686 1.0406903e-05 0.00055813402)
(0.00053342126 1.086298e-05 0.00054785429)
(0.00046366608 3.7025069e-05 0.00030030145)
(0.0004384124 4.5606423e-05 0.00028562705)
(0.00050203292 4.9290273e-05 0.00033087378)
(0.00047695761 -5.1858041e-05 0.00037146993)
(0.0005304485 -4.1348057e-05 0.0003982269)
(0.00050352294 5.7529031e-05 0.00033174642)
(0.00046943956 -5.4526511e-06 0.000315273)
(0.00053056406 4.2270243e-05 0.00033195734)
(0.00047287303 3.9234121e-05 0.00030196965)
(0.00048151753 3.3017729e-05 0.00030492395)
(0.00052991572 5.0953636e-05 0.00033385323)
(0.00048607344 -4.5935527e-05 0.00037502938)
(0.00055077987 -5.6718117e-05 0.00052933223)
(0.00041797715 -4.5299418e-05 0.00032984272)
(0.00053583331 -3.6995022e-05 0.00040621079)
(0.00042689424 -1.8207023e-05 0.00029770817)
(0.00063561959 -7.6115823e-05 0.00056727666)
(0.00054695037 -6.1127538e-05 0.00048719178)
(0.00054114926 -5.9817632e-05 0.00048260458)
(0.00055041713 -5.7883758e-05 0.0004813123)
(0.00056729542 -5.9625969e-05 0.00052637168)
(0.0005578969 -5.7501747e-05 0.00052196691)
(0.00048278606 -2.1738091e-05 0.00034936221)
(0.00057945308 -6.7123982e-05 0.00052672901)
(0.00050244604 -5.3739775e-05 0.00042397943)
(0.00054837562 -5.7173385e-05 0.00050080746)
(0.00061432812 -5.1014204e-05 0.00058582721)
(0.00056360822 -5.2952613e-05 0.00051057409)
(0.00055621684 -5.6153037e-05 0.00048292812)
(0.00058526367 -5.8980982e-05 0.00053624575)
(0.00057650354 -7.030165e-05 0.00051962414)
(0.0005019513 -5.5584626e-05 0.00042586646)
(0.00055928576 -6.6703192e-05 0.00052226798)
(0.0004871651 -5.3514361e-05 0.0003935118)
(0.00054736012 -3.2690659e-05 0.00053072423)
(0.00057281845 -2.6833274e-05 0.00056957836)
(0.00055714189 -5.4773774e-05 0.00048251778)
(0.00048831522 -5.3152876e-05 0.00039201531)
(0.00047498472 -4.8663145e-05 0.0003969946)
(0.00051145062 -4.5504528e-05 0.00040345177)
(0.00047701436 -5.4128949e-05 0.00040913761)
(0.00049254241 -6.1143694e-05 0.0004057896)
(0.00046945744 -2.7965827e-05 0.00035769357)
(0.00060139944 -5.3271803e-05 0.00057412739)
(0.00046912198 -2.653301e-05 0.00035742251)
(0.00088268473 -8.1829121e-05 0.00073398038)
(0.00049034941 -5.1519947e-05 0.00039737543)
(0.00049928066 -1.2091604e-05 0.00049481169)
(0.00053523819 -6.0292174e-05 0.00044069191)
(0.00053812602 -4.8391935e-05 0.00042906905)
(0.00060169939 -5.6611047e-05 0.00053691411)
(0.00052273646 -4.9271174e-05 0.00042082646)
(0.00052223572 -4.4263886e-06 0.00051982774)
(0.00048487108 -4.3933215e-05 0.00039984192)
(0.00054475364 -5.4432223e-05 0.00050825937)
(0.00045350016 -3.7329659e-05 0.00036202307)
(0.00058594208 -6.0871979e-05 0.00052700683)
(0.0005548888 -4.3504978e-05 0.00043274798)
(0.00086813741 -9.9254798e-05 0.00073115325)
(0.00045851764 -4.324239e-05 0.00037531183)
(0.00053663575 -3.0161819e-05 0.00041872448)
(0.00045297955 -4.6425681e-05 0.0003887973)
(0.00053736446 -2.5969722e-05 0.00042158773)
(0.00048382976 -4.7747578e-05 0.00040897492)
(0.00061994522 -4.8867338e-05 0.0005849435)
(0.00056361244 -5.8212965e-05 0.00053496807)
(0.00047558575 -1.8488811e-05 0.00034304404)
(0.00051470586 -3.8351313e-05 0.00041896092)
(0.00049776889 -4.179527e-05 0.00040928829)
(0.00085129942 -8.4569125e-05 0.00073837243)
(0.00058517081 -5.8089797e-05 0.00053755171)
(0.0005015847 -4.6411915e-05 0.00042214848)
(0.00039317659 -3.5680054e-05 0.00033509302)
(0.00054297934 -5.0658723e-05 0.00050212945)
(0.00051875711 -3.8480729e-05 0.00051415682)
(0.00039449781 -3.739812e-05 0.00034417261)
(0.00051853764 -4.657827e-05 0.00044930105)
(0.00047094061 -1.1625808e-05 0.00033311516)
(0.00042768896 -1.7444241e-05 0.0003299445)
(0.00053463952 -2.8317824e-05 0.00042079654)
(0.00054390837 -5.0708218e-05 0.00051103671)
(0.00055752752 -4.7662184e-05 0.00051090647)
(0.00041698338 -2.002571e-05 0.00031892026)
(0.00047223244 -2.5521217e-05 0.0003725351)
(0.00056722427 -2.3333345e-05 0.00056591685)
(0.00052640566 -4.9706874e-05 0.00050595015)
(0.0005685681 -4.9401618e-05 0.00052531348)
(0.00048011631 -1.5269902e-05 0.00048699816)
(0.00041733934 -1.3235061e-05 0.00030533221)
(0.00051950474 -4.1691182e-05 0.00049130984)
(0.00049900039 -4.0831492e-05 0.00048127414)
(0.00048543965 -1.101669e-05 0.00049380386)
(0.00060038867 -5.6895501e-05 0.00053604875)
(0.00052509406 -4.5541983e-05 0.00045690682)
(0.00052670424 -4.9170424e-05 0.00051068872)
(0.00060655741 -5.0969378e-05 0.00053519862)
(0.00041263128 -2.8643359e-05 0.00041396132)
(0.00040465898 -9.8159918e-06 0.00029676845)
(0.00051433235 -4.5030599e-05 0.00044773544)
(0.00052249856 -4.1751811e-05 0.00050978584)
(0.00038062991 -3.7044579e-06 0.00028850363)
(0.00054590959 -4.9082289e-05 0.00049432502)
(0.00052590215 -3.0528646e-05 0.00050624568)
(0.00033512904 -2.0038682e-05 0.00026799234)
(0.00039980528 -8.9422912e-06 0.00030934729)
(0.00041898521 -2.624874e-05 0.00041026164)
(0.00046316926 2.2388684e-06 0.0003263013)
(0.00042635972 -9.4860283e-06 0.0002958123)
(0.00037988879 -8.8870878e-06 0.00029414672)
(0.00042334691 3.2708275e-06 0.00043455051)
(0.00050302864 9.6002381e-06 0.00050012618)
(0.00039669313 -2.0014789e-05 0.00031569902)
(0.00034217222 -2.3763331e-05 0.0002841825)
(0.00051817848 -3.2960557e-05 0.00051030758)
(0.00054877532 -2.7176438e-05 0.0005539537)
(0.00057200655 -4.512097e-05 0.00052502424)
(0.00043707396 -1.3507509e-05 0.00035517501)
(0.00048378373 -2.2252033e-05 0.00047522409)
(0.00062796495 -4.0870266e-05 0.0006033838)
(0.00059159088 -4.7272588e-05 0.00052801723)
(0.00054583254 -4.4823743e-05 0.00049147365)
(0.0006418554 -3.6827235e-05 0.00061821571)
(0.00048354928 -2.254789e-05 0.00048736383)
(0.00048846435 -1.4930459e-05 0.00048482282)
(0.00048983423 -4.0901854e-05 0.00045945054)
(0.00054933817 -3.9777389e-05 0.00052086862)
(0.00051408781 -1.9223834e-05 0.00050727862)
(0.00065097259 -3.7214976e-05 0.00062420688)
(0.00051705697 -2.4041953e-05 0.00051578114)
(0.00055247068 -1.8408677e-05 0.00054854946)
(0.00058342154 -2.2604885e-05 0.00057007561)
(0.00059054321 -4.4717872e-05 0.00052603601)
(0.00056542784 -2.8672631e-05 0.00056551729)
(0.00052220655 -5.3088843e-05 0.00046661256)
(0.00057912949 -1.2828369e-05 0.00058056875)
(0.00064852464 -3.7088087e-05 0.00062144273)
(0.00057356364 -1.1560217e-05 0.00056920801)
(0.0005507176 -1.0999448e-05 0.00054448726)
(0.00058498835 -5.7220963e-06 0.00058566933)
(0.00058027209 -3.6250213e-05 0.00055992189)
(0.00055017315 -3.6671098e-05 0.00051796055)
(0.00044209733 -2.0852277e-05 0.00043709634)
(0.0006379077 -4.4638472e-05 0.0005995485)
(0.00048667976 -3.5685324e-05 0.00045501321)
(0.00057459379 -4.0254344e-05 0.00055211398)
(0.00056248745 -4.2082152e-05 0.00055854308)
(0.00044211384 -2.200682e-05 0.00044680008)
(0.00062819677 -4.3767965e-05 0.00059120761)
(0.00051149163 -4.4073288e-05 0.00046640694)
(0.00060428 -4.3228215e-05 0.00058272919)
(0.00047066561 -4.2853566e-05 0.00044694874)
(0.00060281692 -4.5638788e-05 0.0005711816)
(0.00048897615 -2.9083444e-05 0.00046818219)
(0.00055300827 -3.7066231e-05 0.00050877001)
(0.00055645815 -1.7581186e-05 0.00054564496)
(0.00056019301 -2.281734e-05 0.00056543349)
(0.00054980791 -3.3371714e-05 0.00052725339)
(0.00052796056 -3.3121405e-05 0.00049393118)
(0.00046966998 -2.4521673e-05 0.00045551505)
(0.00054414953 -2.9256644e-05 0.00052220411)
(0.0006086327 -3.3708974e-05 0.00058788408)
(0.00048468091 -3.5810291e-05 0.0004304368)
(0.00054740677 -8.4630607e-06 0.00055550587)
(0.00055474416 -2.8563955e-05 0.000536223)
(0.00057280753 -1.1506513e-06 0.00058191937)
(0.00051399836 -1.6022916e-05 0.00050977026)
(0.00052940468 4.5801605e-06 0.00052803262)
(0.00052768397 -3.5700635e-05 0.00050891264)
(0.00060142259 -3.2014156e-05 0.00058283117)
(0.00054619826 -2.8055107e-05 0.00053333937)
(0.00051815117 -3.7140416e-05 0.00049214413)
(0.00045708306 -2.8710527e-05 0.00043272059)
(0.00054908358 -3.0792124e-05 0.00050721875)
(0.00044670697 -3.0699273e-05 0.00043655072)
(0.00054931683 -4.3679725e-05 0.00050871065)
(0.00060009051 -1.2852136e-05 0.00060924213)
(0.00060305635 -6.5666871e-06 0.00060229992)
(0.00054465553 -3.7241072e-05 0.00051050471)
(0.00044836949 -3.0772051e-05 0.00043206679)
(0.00051129108 -3.5829674e-05 0.00046318129)
(0.00047908309 -2.9105771e-05 0.0004425279)
(0.00061698581 -2.3086785e-05 0.00060426661)
(0.00054416937 -3.6431236e-06 0.0005472216)
(0.00053889934 -3.8441113e-05 0.00049482453)
(0.00050576581 -3.7619668e-05 0.0004649523)
(0.00046810436 -2.4592449e-05 0.00046521335)
(0.00048154179 -2.6759317e-05 0.00046640892)
(0.0003986096 -2.5412559e-05 0.00037677556)
(0.00051579394 -1.2962137e-05 0.00052189685)
(0.00040049886 -2.7974174e-05 0.00038869335)
(0.00048211681 -3.1318447e-05 0.00045070032)
(0.00057141703 -3.2253776e-05 0.00052934855)
(0.00049767544 -2.2664356e-05 0.00048244029)
(0.00057654682 -1.3387835e-06 0.00058051764)
(0.00042142734 -2.0720433e-05 0.00041923586)
(0.00062985055 -2.191283e-05 0.00061440315)
(0.00052391084 -1.2291249e-05 0.0005183292)
(0.00050982269 -2.8212683e-05 0.00046846581)
(0.00050309822 -2.8302169e-05 0.00047254311)
(0.00051278525 -8.3295432e-06 0.00050986207)
(1.8372357e-05 3.1999857e-06 -1.426276e-05)
(0.00049617976 -1.9408371e-05 0.00047764545)
(0.00048825254 -3.061024e-05 0.00047329293)
(0.00057211326 1.1494888e-06 0.00058113449)
(0.00050108198 -2.146396e-05 0.00048131711)
(0.00048645465 6.9732761e-06 0.00050081319)
(0.00058278302 -9.0760264e-07 0.00058796675)
(0.00057265636 -2.7443015e-05 0.00052767913)
(0.00056964465 -3.3898356e-05 0.00053456969)
(0.00057968153 9.4866493e-07 0.0005768977)
(0.00057645688 5.7277657e-06 0.00057643869)
(0.00051723622 -1.0420067e-05 0.00052278195)
(0.0005313428 -1.5093073e-06 0.00053060317)
(1.0947959e-05 3.7646853e-06 5.110472e-06)
(0.0005007673 8.639961e-06 0.00049862979)
(0.00069876233 1.0825868e-05 0.00069866226)
(0.00046765725 -3.6774181e-05 0.00042663007)
(0.00050497476 8.5429209e-06 0.0005092766)
(0.00061586731 8.024147e-06 0.00060928503)
(0.00052939255 -3.415964e-08 0.00053652586)
(0.00054056704 -3.3014066e-05 0.00048508471)
(0.00049024968 7.9332807e-06 0.00050035201)
(0.00049382495 8.9830745e-06 0.00049670849)
(0.00060196577 8.4870364e-06 0.00059918725)
(0.00050924291 -5.3178563e-06 0.00050184744)
(0.00051128309 -3.2639033e-05 0.00047644955)
(0.00070592195 1.3687715e-05 0.00069646058)
(0.00061480647 6.8969538e-06 0.00060704467)
(0.00054533053 7.9319366e-07 0.00054361959)
(0.00039976228 -2.8594979e-05 0.00037925528)
(0.00048839745 -8.5678743e-07 0.00048983867)
(0.00051806661 1.1754716e-05 0.00052565663)
(0.00055763279 1.4865154e-05 0.00056014099)
(0.00054335357 3.5302291e-06 0.00055094434)
(0.00051950097 1.0142306e-05 0.00051827503)
(0.00051882131 1.1495548e-05 0.00051634286)
(0.00055460633 -3.2252286e-05 0.0005074713)
(0.00048777726 -1.2886837e-06 0.00048510179)
(0.00054874844 -2.8818298e-05 0.00049201972)
(0.00060609313 7.9357824e-06 0.00059773696)
(0.00054787297 -2.9815371e-05 0.00049224609)
(0.000478553 1.7875629e-06 0.00048043147)
(0.00049060763 -2.6054008e-05 0.00046630299)
(0.00058930132 -1.1593102e-05 0.0005842155)
(0.00048074194 1.8085867e-06 0.00047644694)
(0.00056117719 -3.0199037e-05 0.00052867226)
(0.00041500308 1.5346065e-05 0.000421735)
(0.00051938071 1.2097165e-05 0.00052427406)
(0.0004933039 -3.6650719e-05 0.00043764449)
(0.00060805327 1.3254456e-05 0.00060756277)
(0.00058520174 1.8607241e-05 0.00057326914)
(0.00048609354 -2.826679e-05 0.00044061603)
(0.00061579645 -2.5366133e-05 0.00059551086)
(0.00054665392 2.3583092e-05 0.00053183754)
(0.00051090964 9.0934992e-06 0.00051231223)
(0.00061540192 1.5185383e-05 0.00060359534)
(0.00046014957 -1.4385782e-05 0.00038429531)
(0.00043657525 -1.9988866e-05 0.00036540601)
(0.00050889266 1.131543e-05 0.00050421441)
(0.00052383466 -2.3511824e-05 0.00047927606)
(0.00062691665 -2.5778396e-05 0.00060410516)
(0.00048868826 -2.6162767e-05 0.00046483394)
(0.000469307 -2.6916383e-05 0.0004624887)
(0.00059856606 2.0910485e-05 0.00059072757)
(0.0006111366 -2.2768311e-05 0.00059167024)
(0.00052087463 1.7387522e-05 0.00051733847)
(0.00058829067 1.8108034e-05 0.00058584556)
(0.00058408072 1.9371662e-05 0.00057713578)
(0.00055388753 2.2985047e-05 0.00053866594)
(0.00056238037 2.408032e-05 0.00056969674)
(0.00058495462 1.9846945e-05 0.00057326381)
(0.00063150957 -2.0717201e-05 0.00061392757)
(0.00049261504 2.3416615e-05 0.00048138778)
(0.00054458446 -3.3416761e-05 0.00051843198)
(0.00039749101 2.051208e-05 0.00039160499)
(0.00056047069 2.3225287e-05 0.00053896235)
(0.0005223144 2.9690435e-05 0.00052112056)
(0.00056308064 -2.6632937e-05 0.00051494373)
(0.0005149821 1.8021949e-05 0.00051292173)
(0.00053748666 2.9393061e-05 0.00052646185)
(0.00038233473 -2.7747399e-05 0.00031405761)
(0.0004885251 -2.4285619e-05 0.00043899692)
(0.00047906053 2.0767439e-05 0.0004767155)
(0.00059394023 -4.869218e-05 0.00050508291)
(0.00052968416 3.1229397e-05 0.00051965552)
(0.00051270657 -9.180166e-06 0.00051360786)
(0.00037835858 -3.1089934e-05 0.00030708185)
(0.00051914256 -3.0785668e-05 0.00048290688)
(0.00047693146 -1.6585232e-05 0.00046791434)
(0.00046291534 -3.4816018e-05 0.00041333762)
(0.00056327326 -2.8420039e-05 0.00051294559)
(0.00061536349 -4.869679e-05 0.00052425822)
(0.00058615225 2.0523376e-05 0.00059480533)
(0.00048263483 -2.6977978e-05 0.00045712062)
(0.00046830739 -2.6542265e-05 0.00042372096)
(0.00053238942 -6.0469871e-06 0.00053529163)
(0.00058661524 -1.1194984e-05 0.00057547261)
(0.00053860903 -2.9757183e-06 0.00054275195)
(0.00044915638 -2.6055206e-05 0.00042634242)
(0.00056258579 1.7037273e-05 0.00055336488)
(0.00049879814 -2.3575766e-05 0.00044515916)
(0.00051000378 -2.540393e-05 0.0004741807)
(0.00050075107 -3.0911978e-05 0.00047115428)
(0.00049334175 -2.6298612e-05 0.00045061184)
(0.0003438788 -1.8530579e-05 0.00028637627)
(0.00045587602 -2.9511283e-05 0.0004163513)
(0.00048864381 -3.0692648e-05 0.00045047156)
(0.00046716362 -2.6346026e-05 0.00041915514)
(0.00053060398 2.3691029e-05 0.00053252039)
(0.00048846781 -2.5396742e-05 0.00043698693)
(0.0005512251 -2.6833719e-05 0.00050597393)
(0.0005156567 -2.811126e-05 0.00046517647)
(0.00062471439 -2.4739137e-05 0.00060955713)
(0.00058588272 -3.3005707e-05 0.00051957195)
(0.00048318325 -2.9956319e-05 0.0004319595)
(0.00053260407 -3.467448e-05 0.00049278163)
(0.00062159212 -2.7521895e-05 0.00060517653)
(0.00050976911 -3.2308005e-05 0.000458284)
(0.00045549126 -2.7388963e-05 0.00040513391)
(0.00049187534 -3.6123825e-05 0.00043517916)
(0.00054171966 -3.0737478e-05 0.00048226124)
(0.0004499392 -2.8910942e-05 0.00039928789)
(0.0004806508 -2.1388285e-05 0.00042080268)
(0.00050429146 -2.5424565e-05 0.00043839642)
(0.00055517806 -2.7557819e-05 0.00048822757)
(0.00051222949 -2.9676781e-05 0.0004456993)
(0.00056229644 -2.7749536e-05 0.00049272509)
(0.00051498101 -2.6239481e-05 0.00044477853)
(0.00040346975 -2.6672734e-05 0.00036090156)
(0.00051389039 -2.737038e-05 0.00044320549)
(0.00051609467 -3.2049406e-05 0.00045608495)
(0.00041190058 -2.7289675e-05 0.00035254454)
(0.00049001638 -3.775796e-05 0.00043187457)
(0.00050654377 -2.9753944e-05 0.00044639696)
(0.00056084666 -3.5337224e-05 0.00048075628)
(0.00050436712 -2.9308584e-05 0.00041925368)
(0.000585726 -3.7299919e-05 0.00051960348)
(0.0004886634 -2.5998396e-05 0.00044044111)
(0.00054415419 -3.9335293e-05 0.00046327673)
(0.00049538315 -3.9050058e-05 0.00043655474)
(0.00039367209 -3.0187675e-05 0.0003614413)
(0.00055432601 -2.0966538e-05 0.00048913832)
(0.00052375166 -3.4987726e-05 0.00046228898)
(0.00051339939 -3.3137153e-05 0.00045340472)
(0.00049313326 -1.4627903e-05 0.00043249658)
(0.00052551022 -3.4327914e-05 0.0004680603)
(0.00046874767 -3.0850188e-05 0.00041245538)
(0.00051521048 -1.8098381e-05 0.00050126955)
(0.00053883861 -3.0122322e-05 0.00047083155)
(0.00046248433 -3.2160418e-05 0.00040759633)
(0.00048712953 -1.5744892e-05 0.00043291042)
(0.00045300375 -2.9875828e-05 0.00040905363)
(0.00052242919 -3.812414e-05 0.00047393673)
(0.00037807896 -2.2170125e-05 0.00033920541)
(0.00046947448 -2.4603418e-05 0.00041624125)
(0.0006014253 -1.8201329e-05 0.00050984512)
(0.00053948817 -2.8483295e-05 0.00048291499)
(0.00049661856 -2.2666701e-05 0.00043151676)
(0.00057173048 -2.0930494e-05 0.00049515283)
(0.00061898212 -4.4620643e-05 0.00052685761)
(0.00049117671 -3.052943e-05 0.00042248504)
(0.00050481187 -2.7578997e-05 0.00044964296)
(0.00041463395 -2.1934494e-05 0.0003470757)
(0.00048850515 -2.1550018e-05 0.00043779505)
(0.00052343054 -1.5813411e-05 0.00046429854)
(0.00051960156 -1.9009455e-05 0.00049729542)
(0.00051944972 -2.1246715e-05 0.00046370718)
(0.00049132803 -1.4224999e-05 0.00042370858)
(0.00049200617 -3.1440447e-05 0.00040523504)
(0.00048074155 -1.7081383e-05 0.00042571755)
(0.00055911349 -8.6193061e-06 0.00049336357)
(0.00049809918 -1.8428946e-05 0.0004252936)
(0.00055768319 -1.2817109e-05 0.00049160622)
(0.00046795177 -2.7281263e-05 0.00041858453)
(0.00049861849 -1.6677493e-05 0.00044056838)
(0.00037830962 -1.7401376e-05 0.00033337181)
(0.00050041939 -1.3389383e-05 0.00044766831)
(0.00059850819 -3.0448563e-05 0.00058122056)
(0.00057953792 -1.3732743e-05 0.00050130831)
(0.00049934376 -1.4317917e-05 0.00044280554)
(0.00047225669 -2.8319747e-05 0.00045682178)
(0.00045895709 -2.4117057e-05 0.00040489747)
(0.00052440677 -1.4576185e-05 0.00045605095)
(0.00052709167 -5.1000464e-07 0.00047384785)
(0.00044656851 -2.3959663e-05 0.00041976592)
(0.00038695769 -3.4574353e-05 0.00033023579)
(0.00053139186 -7.3311537e-06 0.00045881196)
(0.00044078675 -2.6472336e-05 0.0003906967)
(0.00062707351 -3.6968338e-05 0.00052369088)
(0.00059161107 -1.8090339e-05 0.00049403826)
(0.0004939199 -2.448947e-05 0.00040702259)
(0.00046465557 -1.3989167e-05 0.00040454227)
(0.00044824659 -3.3785795e-05 0.00037506506)
(0.00052693483 -1.3642369e-05 0.00047099966)
(0.00055500861 -2.2330804e-05 0.000476456)
(0.00055422705 -3.0121318e-05 0.00051210444)
(0.00052617692 -2.5255908e-06 0.00047075595)
(0.00053373679 -2.4779866e-05 0.00043111534)
(1.688079e-05 1.4842405e-06 3.3349103e-06)
(0.00056290812 -2.6999135e-05 0.00049325457)
(0.00042160173 -1.3330489e-05 0.00037740043)
(0.00040624419 -2.3430346e-05 0.00035569704)
(0.0004355005 -2.2258666e-05 0.00038064605)
(0.00057882577 -1.3760138e-05 0.00049871588)
(0.00046553042 3.601189e-06 0.00042929771)
(0.00046097229 -4.088754e-06 0.00042832024)
(0.00041101404 -1.4461885e-05 0.00037057979)
(0.00046306184 -2.8960521e-05 0.00036822769)
(0.00049532613 -2.7574096e-05 0.00042965395)
(0.00048440934 -2.4901154e-05 0.00041554073)
(0.0005323767 -6.4132343e-06 0.00045655344)
(0.00060150908 -3.8146872e-05 0.00051055757)
(0.00054281295 -3.5150579e-05 0.00050233697)
(0.00053133906 -1.2761447e-05 0.00044374566)
(0.00049040595 -1.8332451e-05 0.0004056045)
(0.00045229591 -3.7576107e-05 0.00036708354)
(0.00053440566 -9.8833307e-06 0.0004379964)
(0.00055038737 -2.8215214e-05 0.00047726705)
(0.00053596269 -2.5004038e-05 0.00043121407)
(0.00053144019 -1.5451735e-05 0.00043476325)
(0.00040169971 -2.5802863e-05 0.00037153671)
(0.00056748934 -2.6976976e-05 0.00049469983)
(0.00049362776 -1.7592807e-05 0.00039790957)
(0.0004353384 -6.0419388e-06 0.00039045613)
(0.00038521857 -1.8283133e-05 0.00029691277)
(0.00049508594 -1.4081823e-06 0.00043906101)
(0.00052711649 -3.6927468e-05 0.00045338807)
(0.00047421298 -1.0726856e-05 0.00036569397)
(0.0004650372 -1.7945412e-05 0.00035875981)
(0.00038026764 -2.3618735e-05 0.00029817336)
(0.00055577162 -2.6885484e-05 0.00047667723)
(0.00060458225 -2.1540774e-05 0.00051183532)
(1.1390594e-05 2.1025834e-06 1.7194923e-05)
(0.0003508069 -2.978206e-06 0.00032759356)
(0.00044294084 -3.5209528e-05 0.00038140641)
(0.00055637669 -1.4824917e-05 0.00041514261)
(0.00062329769 -3.6167087e-05 0.00053645661)
(0.00046508109 -2.1911488e-05 0.00035615059)
(0.00056558207 -6.0053106e-06 0.0004229129)
(0.0005365844 -3.0383408e-05 0.00040288067)
(0.00052607458 -2.1774923e-05 0.00038977796)
(0.00056315885 -8.3698258e-06 0.00044254051)
(0.00039505738 -2.3227165e-06 0.00038130263)
(0.0005510616 -1.6883106e-05 0.00040906829)
(0.00048690011 -2.6033294e-05 0.00046050782)
(0.00052150553 -2.7846186e-05 0.00048996012)
(0.00051612254 -1.5625507e-05 0.00043702445)
(0.00060127731 -2.6293333e-05 0.00059141571)
(0.00056332919 -4.0363957e-05 0.00049470999)
(0.00050635333 2.1691648e-07 0.00035573437)
(0.00047536169 -1.4500103e-05 0.00033517858)
(0.00042800909 -1.9901477e-05 0.0003127345)
(0.00049521125 -1.9817217e-06 0.00033967125)
(0.00046537163 -2.1833351e-05 0.00033067874)
(0.00047702536 -1.6594579e-05 0.00032770026)
(0.00049477776 -9.8831265e-06 0.00040104986)
(0.0004339108 4.2950429e-06 0.0003967709)
(0.00042090966 -1.658898e-05 0.00029177073)
(0.00054872793 -3.1642078e-05 0.00047624627)
(0.00057210665 -2.5034116e-06 0.00045447584)
(0.00042929583 -7.3343898e-06 0.00028688917)
(0.00052507693 -3.7936929e-05 0.00049442577)
(0.00047706342 -2.5589448e-06 0.00031509535)
(0.00042068152 -1.5702713e-05 0.00028521609)
(0.0005119403 -4.3174366e-05 0.00043618762)
(0.0005389397 -8.4190689e-06 0.00041786518)
(0.00045982021 -3.0545478e-05 0.00035436781)
(0.00036469161 4.4700308e-06 0.00027091352)
(0.00039955346 -7.1733988e-06 0.00025709902)
(0.0004332661 -2.8724387e-05 0.00034360947)
(0.00048835924 1.001933e-05 0.00032668573)
(0.00040781657 1.9047832e-06 0.00026041381)
(0.00041350514 -2.6921463e-05 0.00030910236)
(0.00044484121 7.9257977e-06 0.00031797637)
(0.00033198912 -2.098837e-05 0.00023840015)
(0.00047347415 -2.9336359e-05 0.00035746303)
(0.0005712129 -4.3332382e-05 0.0004940285)
(0.00042024663 -1.380945e-06 0.00039342712)
(0.00033429057 -1.8310013e-05 0.00024501663)
(0.00051644111 -7.599416e-06 0.00043960435)
(0.00053392984 -3.0746959e-05 0.00046155255)
(0.00061096042 -4.318391e-05 0.00053420488)
(0.00041521565 -1.3787978e-06 0.00034054699)
(0.00051343501 -2.8542791e-05 0.00048503386)
(0.00048437572 -2.8995849e-05 0.00046917803)
(0.0004242823 -2.4773221e-05 0.00040846423)
(0.00050825547 -2.2257533e-05 0.00049372816)
(0.00043214568 -2.1305954e-05 0.00041260673)
(0.00032174779 -9.2336301e-06 0.00021264839)
(0.00042315757 -2.3779019e-06 0.00026942496)
(0.00044886581 1.3156747e-05 0.00026977349)
(0.00054984274 -2.6639911e-05 0.0004694027)
(0.00050050426 -2.0826107e-05 0.0004940912)
(0.00048402709 -1.9094617e-05 0.00047634172)
(0.00049799279 -1.6141401e-05 0.00048195682)
(0.00054274174 -3.0513503e-05 0.00046866197)
(0.00036543859 -1.8068069e-05 0.00025607169)
(0.00046709811 -1.1441147e-05 0.00045693115)
(0.00058710358 -3.6342731e-05 0.00049583356)
(0.00056712958 -3.8692985e-05 0.0004821359)
(0.00043271098 7.7558368e-06 0.00025909856)
(0.00045902627 -6.123077e-06 0.00029803062)
(0.00041216254 -1.2854268e-06 0.00025379309)
(0.00061693979 -3.4090194e-05 0.00052275596)
(0.00031617658 -1.896563e-05 0.00021546944)
(0.00050443542 -4.146638e-05 0.00043148223)
(0.00049441434 -2.7594224e-05 0.0003635991)
(0.00046915164 -3.9232587e-05 0.00035844497)
(0.00035609459 -2.412418e-05 0.00025578688)
(0.00044328257 -1.0362217e-05 0.00028363497)
(0.0004860396 -3.1290795e-05 0.00035876119)
(0.00043174943 -2.4992078e-05 0.00028044698)
(0.00039965264 -1.5123064e-05 0.00027135893)
(0.00047149462 -3.5541878e-05 0.00035953091)
(0.00038348677 -1.4985449e-05 0.0002488372)
(0.00041319652 -3.3701129e-06 0.00026116822)
(0.00037519946 -2.137037e-05 0.0002525681)
(0.00039192293 -2.3964232e-05 0.00027403369)
(0.00034767743 -1.6190796e-05 0.00023694095)
(0.00039081055 -2.3511484e-05 0.00026949253)
(0.00039388302 -2.193955e-05 0.00027896382)
(0.00040111772 -7.7306423e-06 0.00025077103)
(0.00044526208 -2.5960877e-05 0.00032697168)
(0.00038578803 -1.9516563e-05 0.00025140772)
(0.00039456198 -1.4729408e-05 0.00027527905)
(0.00040280724 -3.4114007e-05 0.00030245806)
(0.00047848631 -3.5256383e-05 0.00036738958)
(0.00044002682 -3.1637557e-05 0.00032569671)
(0.00047013793 -3.7035461e-05 0.00036279197)
(0.0003855688 -2.9861873e-05 0.00027618696)
(0.00038479961 -1.8165733e-05 0.00026687964)
(0.00034653407 -8.9078047e-06 0.00023261252)
(0.00043713954 -2.8831637e-05 0.00032436182)
(0.00039344156 -1.0484076e-05 0.00027282229)
(0.00041554777 -2.4308871e-05 0.00029559064)
(0.00044044132 -3.8581716e-05 0.00034496566)
(0.00037398053 -2.8457331e-05 0.00026933064)
(0.00041923265 -2.6721135e-05 0.00031482934)
(0.00047778681 -3.457791e-05 0.00037575761)
(0.00040379032 -3.1521117e-05 0.00030853688)
(0.00051819548 -4.2802888e-05 0.00041317528)
(0.00035116088 -2.6051184e-05 0.00026308137)
(0.00040051651 -3.1774757e-05 0.00029482678)
(0.00040955132 -2.9961134e-05 0.00030585948)
(0.00046378314 -3.7447896e-05 0.00036778693)
(0.00047222754 -3.7980497e-05 0.00038448427)
(0.00047739912 -3.9152334e-05 0.00038810909)
(0.00052646113 -4.3399334e-05 0.00042302274)
(0.00039471719 -4.0609525e-05 0.00031070521)
(0.00042671914 -4.2982733e-05 0.00036297192)
(0.00035744531 -3.2035794e-05 0.00029889622)
(0.00051314135 -4.6809857e-05 0.00041219222)
(0.00045428077 -4.0766655e-05 0.00037909733)
(0.00039823719 -3.7265096e-05 0.00030511714)