/*--------------------------------*- C++ -*----------------------------------*\
  =========                 |
  \\      /  F ield         | OpenFOAM: The Open Source CFD Toolbox
   \\    /   O peration     | Website:  https://openfoam.org
    \\  /    A nd           | Version:  11
     \\/     M anipulation  |
\*---------------------------------------------------------------------------*/
FoamFile
{
    format      ascii;
    class       volVectorField;
    location    "10000";
    object      wallShearStress;
}
// * * * * * * * * * * * * * * * * * * * * * * * * * * * * * * * * * * * * * //

dimensions      [0 2 -2 0 0 0 0];

internalField   uniform (0 0 0);

boundaryField
{
    wall-fluid_domain
    {
        type            calculated;
        value           nonuniform List<vector> 
43271
(
(-0.00012000172 9.4659654e-06 8.8475667e-05)
(-9.2372271e-05 5.2492686e-06 7.9908384e-05)
(-0.00053807617 -1.0744445e-05 0.00027323414)
(-8.5728016e-05 1.5666268e-05 0.00012824264)
(5.7040304e-05 -0.00012638904 -5.6824039e-05)
(-8.571448e-05 1.9229277e-05 0.00013399773)
(-0.00048924884 -1.6805799e-05 0.00024820055)
(-8.4808073e-05 1.3671944e-05 0.00012978439)
(-9.6663469e-05 2.2329101e-05 0.00013546837)
(-9.1997954e-05 1.1025271e-05 0.00011957937)
(-0.00047738869 -1.9081192e-05 0.00024864767)
(-0.00027838421 -2.0007178e-05 0.00011135797)
(-9.3088803e-05 1.180097e-05 0.00012005235)
(-0.00011306178 3.2804066e-05 0.00013666894)
(-0.0001514003 3.6812479e-05 0.00015129732)
(-0.00015187185 3.5994585e-05 0.00014442249)
(-0.00054734749 6.9962661e-05 0.0001341604)
(-0.00019096634 3.0805613e-05 0.00014241456)
(-8.6091748e-05 9.0017949e-06 0.00012180724)
(-0.00028570262 2.432482e-05 0.00018121277)
(-0.00010944423 1.562662e-05 0.00010934461)
(-0.00016754469 3.5012711e-05 0.00014902927)
(-9.6529414e-05 6.9750514e-06 7.9060921e-05)
(-0.00018248179 2.8635758e-05 0.00013972992)
(-0.00015370232 4.0849315e-05 0.00015234903)
(-0.00017404074 3.9433596e-05 0.00015245972)
(-0.00036296555 -9.8776873e-06 0.00020293958)
(-0.00010769851 1.1674245e-05 9.5816403e-05)
(-9.9829436e-05 2.6360584e-05 0.00013634042)
(-0.00017210424 4.3022078e-05 0.0001610222)
(-0.00010865961 2.7156265e-05 0.00013197101)
(-0.00020354619 2.958778e-05 0.00014604438)
(-0.00034709388 2.5178902e-05 9.6731119e-05)
(-0.00022037319 1.1481621e-05 0.00013544755)
(-0.00013543675 1.5145083e-05 9.6019211e-05)
(-0.00019722904 3.2853976e-05 0.00016123979)
(-0.0002438114 3.1209503e-05 0.00017413424)
(-0.00010639998 2.2681841e-05 0.00011656527)
(-0.00036906181 -1.2575224e-05 0.00020831881)
(-0.00025499209 1.8932971e-05 0.0001670621)
(-0.00016477715 2.2131607e-05 0.00014951157)
(-0.0001001512 1.9401569e-05 0.00011407987)
(-0.00027089726 3.1946829e-05 0.00018985546)
(-9.9858099e-05 2.1446765e-05 0.00011737226)
(-0.00010003474 2.2137899e-05 0.00013071585)
(-0.00012194463 8.4104323e-06 8.2988271e-05)
(-0.00010840125 7.5350035e-06 7.950668e-05)
(-0.00016866813 3.030182e-05 0.00014739041)
(-0.0001961589 2.956965e-05 0.00015683058)
(-0.00011569282 2.3346625e-05 0.00011112276)
(-0.00018869673 3.1148676e-05 0.0001534778)
(-0.00013200862 2.1675487e-05 0.00012108381)
(-0.00027488668 3.2405928e-05 0.00020320891)
(-8.1880742e-05 4.4327106e-07 9.3342615e-05)
(-0.00014914101 1.8446969e-05 0.00012450852)
(-0.00027048035 3.8828863e-05 0.00019795819)
(-0.00012221224 7.3728199e-06 9.1172843e-05)
(-0.0001613071 2.1187071e-05 0.00013895044)
(-0.00010458639 2.2269062e-05 0.0001123087)
(-0.00012859565 4.998968e-06 0.00010362584)
(-9.7830781e-05 1.6256655e-05 0.00011927305)
(-8.3822973e-05 8.4482745e-07 7.8038168e-05)
(-0.00018214431 2.4802229e-05 0.00014931844)
(-0.00012414801 2.3533354e-05 0.00011214463)
(-0.00018018996 2.8511836e-05 0.00014505063)
(-0.00017085725 2.2765289e-05 0.00013945901)
(-0.00010992938 1.9111047e-05 0.00010586096)
(-0.00015281496 1.8599641e-05 0.00012923798)
(-0.00013125331 7.2110627e-06 8.8238266e-05)
(-0.00050671736 7.5375542e-05 0.00012773629)
(-0.000179669 2.473702e-05 0.00014205238)
(-0.00014631257 5.8244569e-06 9.1599369e-05)
(-0.0001667235 2.3995842e-05 0.00013206295)
(-0.00015429144 1.4931704e-05 0.00011734867)
(-0.00034969425 0.00012324932 5.122748e-05)
(-0.00014052578 1.0386024e-05 0.00010526872)
(-0.00013184972 5.6865545e-06 8.3088329e-05)
(-0.00014289081 9.6650318e-06 0.00010317866)
(-0.00013524778 7.7573739e-06 0.0001037977)
(-0.00014445583 1.1272953e-05 0.00010341791)
(-0.00011509802 8.0765241e-06 7.9593327e-05)
(-0.00014809625 1.1309842e-05 0.00010516767)
(-0.00013576778 5.519283e-06 9.3237797e-05)
(-0.00014739803 8.9923961e-06 0.00010195836)
(-0.00014228867 1.0593411e-05 9.3579818e-05)
(-0.00036349087 0.00013076447 6.1804038e-05)
(-0.00016207841 3.84349e-06 0.00010094467)
(8.4982284e-05 -7.3513538e-05 -3.0296707e-05)
(-0.00010669077 1.0751569e-05 8.5839892e-05)
(-0.00017024861 7.7342789e-06 0.00010173401)
(-0.00015396597 9.2669178e-06 9.4483329e-05)
(5.297931e-05 -4.034213e-05 -1.5843622e-05)
(-9.8090213e-05 4.6807307e-06 8.4550725e-05)
(-0.00029997617 6.3280322e-05 7.3423142e-05)
(-0.00017929864 1.1334665e-05 0.00010652571)
(-0.00019449708 9.8132378e-06 0.00011466664)
(-0.00016111126 1.6595298e-05 0.00011882547)
(-0.00015095844 6.0535963e-06 8.6447463e-05)
(-0.00016084667 8.4237899e-06 9.401433e-05)
(-0.00014246691 9.0160062e-06 8.4433422e-05)
(-0.00017014934 1.1544623e-05 9.7907384e-05)
(-0.00015906198 3.5516115e-06 8.9545032e-05)
(-0.00015119473 1.0168328e-05 0.00010669348)
(-0.00014736113 5.8220489e-06 8.4443551e-05)
(-0.00012811865 7.9701855e-06 7.9253224e-05)
(-0.00014697748 3.4848066e-06 9.6514678e-05)
(-0.00014650781 5.2003265e-06 9.3303466e-05)
(-0.00020293446 1.1933055e-05 0.00011946653)
(-0.00020020788 7.781207e-06 0.00011475866)
(-0.00016196265 6.4759783e-06 8.7528012e-05)
(-0.00015006338 6.2690376e-06 8.1069339e-05)
(-0.00018192445 3.8643059e-06 0.00011149128)
(-0.00054280802 6.8451807e-05 0.00012529873)
(-0.00020848649 1.1356206e-05 0.00011762799)
(-0.00019312756 1.5906976e-05 0.00013661434)
(-0.00013935617 6.5385615e-06 9.7891993e-05)
(-0.00045824584 2.0803208e-05 0.00025493696)
(-0.00038831447 1.3359939e-05 0.0002159429)
(-0.00013769401 1.9341906e-06 9.4013592e-05)
(-0.0004385339 2.1483907e-05 0.00025593261)
(-0.00045548244 1.6532438e-05 0.0002578578)
(5.0232926e-06 -9.8936473e-05 4.6822535e-05)
(-0.00017358862 4.9800976e-06 9.1720017e-05)
(-0.00021134571 1.0157622e-05 0.00014481811)
(-0.00020223319 6.103858e-06 0.00010976972)
(-0.00019467844 8.8097597e-06 0.00012212697)
(-0.00028132972 2.2171026e-05 0.00019436448)
(-0.00032580704 2.1991143e-05 0.00020807657)
(-0.00022168346 1.4891118e-05 0.00014762788)
(-0.00020253738 1.921695e-05 0.0001410537)
(-0.00019821538 1.7861365e-05 0.0001393767)
(-0.00019627605 1.3408523e-05 0.0001309312)
(-0.00018942525 4.8253113e-06 0.00012414895)
(-0.0003591165 -8.3513838e-08 0.00020303225)
(-0.00019356262 1.1362372e-05 0.0001355646)
(-0.00020090575 1.2051353e-05 0.00012924075)
(-0.00016900536 2.0471069e-05 0.00013329111)
(-0.00017084738 2.0853841e-05 0.00012920558)
(-0.00019857842 1.5242489e-05 0.00014725556)
(-0.00021118074 1.237261e-05 0.00011325692)
(-0.00021781413 9.7030008e-06 0.00011167765)
(-0.00022428572 3.0634272e-05 0.00017275574)
(5.7272993e-05 -0.00013930348 3.82634e-05)
(-0.00021109516 2.9313108e-05 0.00016280077)
(-0.00021185556 5.3948119e-06 0.00011394037)
(-0.00033953808 -2.1289718e-06 0.00019531943)
(-0.00018333728 5.8740509e-06 9.6038113e-05)
(-0.00022833492 1.6579292e-05 0.00011595855)
(-0.00019317255 4.8618227e-06 9.7688595e-05)
(-0.00021220498 7.9516914e-06 0.0001191868)
(-0.00022001934 3.9967075e-06 0.00011446333)
(-0.00013589174 -2.5259623e-05 0.00013895413)
(-0.00022187031 1.5640051e-06 0.00011817195)
(-0.00030987378 0.00011136219 5.1609567e-05)
(-0.00012568452 -3.1496305e-05 0.00013761672)
(-0.00019999679 1.1764201e-05 0.00010112376)
(-0.00018476788 1.4159756e-05 0.00013813296)
(-0.00019740532 -2.4631936e-07 0.00010182361)
(-0.00039173422 1.3848138e-05 0.00022893044)
(-0.00016948792 3.6850981e-06 8.3298529e-05)
(-0.00019490641 -1.5510096e-06 9.6833908e-05)
(-0.00021399315 5.213051e-06 0.00011983678)
(5.974613e-05 -0.00010659233 2.5810614e-05)
(-0.00024728865 6.104952e-06 0.00013108919)
(-0.00040387225 4.3361447e-06 0.0002319526)
(-0.00025890442 3.9373344e-07 0.00012923692)
(-0.00010887507 5.4421358e-06 8.0979218e-05)
(-0.00027122576 1.100935e-05 0.00013712042)
(-0.00025511048 1.0996086e-05 0.00013321479)
(-0.00025889858 7.4503123e-06 0.00012670152)
(-0.00044480492 1.1291915e-05 0.00024894121)
(-0.00024145125 7.4055377e-06 0.0001308876)
(-0.0004268983 7.9048189e-06 0.00023603176)
(-0.00026338118 9.0275099e-06 0.00013214974)
(-0.00022338568 9.0070546e-06 0.00010909762)
(-0.00024196262 4.1951911e-06 0.00011661075)
(-0.00024945005 9.3429815e-06 0.00012188047)
(-0.0002490641 1.0782731e-05 0.00013371899)
(-0.00020797148 2.1855756e-05 0.00015505569)
(-0.00023050753 1.3136183e-05 0.00011369204)
(-0.00034817699 1.0456202e-05 0.00020202416)
(-0.00027534736 1.2612746e-05 0.00013803809)
(-0.00027424426 8.9986886e-06 0.00012991918)
(-0.00044096732 7.5841701e-06 0.00026146863)
(-0.00026399498 9.1400543e-06 0.00013662196)
(-0.00013084771 -4.416589e-05 0.00013648574)
(-0.00033790593 -6.2859649e-06 0.00019160165)
(-0.00018942751 2.4457068e-05 0.00014575117)
(-0.00026360543 4.6225713e-06 0.00013568991)
(-0.00034587671 -6.425358e-06 0.00018696693)
(-0.00041426073 1.2239842e-05 0.00024564485)
(-0.00028220171 1.6034432e-05 0.00013343168)
(-0.00025473047 3.8086578e-06 0.00012338106)
(-0.00023642448 2.7273578e-06 0.00011756592)
(-0.00019477066 2.3964683e-05 0.00015534105)
(-0.00023475883 2.2754964e-05 0.00016628885)
(-0.00017994815 9.0527936e-06 9.021869e-05)
(-9.8481182e-05 -4.2084283e-05 0.00010586231)
(-0.00020214077 6.2882127e-06 9.807056e-05)
(-0.00033754973 1.1994673e-05 0.00019937726)
(-0.00034561162 1.2913491e-05 0.00020898367)
(-0.00026417886 2.6330671e-06 0.00012423884)
(-0.00028097635 9.7586652e-06 0.00012776092)
(-0.00024103937 6.0601872e-06 0.00012206155)
(-0.00026178374 5.7257782e-06 0.00012007064)
(-0.00025617367 8.3816164e-06 0.00013736814)
(-0.00024398103 9.6534259e-06 0.00011592335)
(-0.00022086343 3.323991e-06 0.00011789604)
(-0.00035802786 -1.140262e-05 0.00020182539)
(-0.00039061672 7.8588212e-06 0.00022452321)
(-0.00029791699 8.8074279e-06 0.00014220508)
(-0.00027297009 5.814204e-06 0.00012342141)
(-0.00031316938 5.8195404e-06 0.00015563252)
(-0.00026594409 1.0789143e-05 0.00012592)
(-0.00021459389 2.5811001e-05 0.00016542032)
(-0.00027504251 6.9319068e-06 0.00012537545)
(-0.00029448971 1.9003294e-05 0.000132604)
(-0.0003042278 1.1430702e-05 0.00014260674)
(-0.00031844553 8.7832631e-06 0.00015616324)
(-0.00047965727 7.0526329e-05 0.00011282576)
(-0.00013337033 -3.5494925e-05 7.6130884e-05)
(-0.00037886768 -1.1767763e-05 0.00021502096)
(-0.00034634321 -0.00012316723 6.0697494e-05)
(-0.000245822 3.9073918e-05 0.00017553684)
(-0.00022826371 2.492533e-05 0.00016120905)
(-0.00022150939 7.6562946e-06 0.00012274462)
(-0.0002166333 7.2300165e-06 0.00012126129)
(-0.00038959297 7.7638255e-05 9.57876e-05)
(-0.00056283828 9.7075723e-05 0.00012401454)
(-0.00010702206 -2.1549466e-05 0.00014676122)
(-0.00035304123 7.7132701e-05 8.8739485e-05)
(-0.00012387548 0.00011323275 -7.3292539e-06)
(-0.00023731944 7.4688485e-05 5.3479049e-05)
(-0.00028504815 1.1609338e-05 0.00012623929)
(-0.00027718154 9.8988065e-06 0.00012018052)
(-0.00031029224 6.5563958e-06 0.00013948536)
(-0.00011000756 -2.0783716e-05 0.0001480028)
(-0.0002288955 3.1765576e-05 0.0001639317)
(-0.00023355624 3.4022985e-05 0.00016323695)
(-0.0003139808 1.1110009e-05 0.00014517837)
(-0.00028490216 4.7152006e-06 0.00013517308)
(-0.00028613628 3.6840104e-05 0.00020198599)
(-0.00031009789 6.168591e-06 0.00017514369)
(-0.00029295764 1.5533315e-05 0.00012790265)
(-0.00031308724 9.7058443e-06 0.00013444556)
(-9.3242478e-05 0.00012724191 -6.8503301e-06)
(-0.0002501934 2.9458327e-05 0.00017869116)
(-0.00024964224 2.7041744e-05 0.00018241822)
(-0.00029555985 3.7050406e-05 0.00020942683)
(-0.00031916177 -4.4499391e-06 0.00017847934)
(-0.0003192398 9.9368453e-06 0.00014342983)
(-0.00023194686 2.8745764e-06 0.00014370382)
(-0.00029992248 -9.0240633e-07 0.00014004155)
(-7.8641977e-05 0.00011375202 -1.6476672e-05)
(-0.00033656581 1.162003e-05 0.00013924168)
(-0.00034511447 6.1195828e-06 0.00014671316)
(-0.00035154046 6.2442896e-06 0.00015470568)
(-0.00033154174 2.575801e-06 0.00013947421)
(-0.0003334829 6.3614607e-06 0.00013534367)
(-0.00039052197 9.7835193e-06 0.00016763304)
(-0.00039993491 1.3756105e-05 0.0001688822)
(-0.00037085952 9.0302271e-06 0.00014932525)
(-0.0003810433 1.8039294e-05 0.00015523897)
(-0.00012139508 -3.0845868e-05 0.00013786404)
(-0.00035061346 1.0325754e-05 0.00013886843)
(-0.00012276162 -3.8215379e-05 0.00013120768)
(-0.00040837621 1.8681719e-05 0.00016091075)
(-0.00011084028 -4.0800777e-05 0.00012978139)
(-0.00043881852 5.3057864e-06 0.00017854041)
(-0.00041082454 9.1680157e-06 0.0001701225)
(-0.0003241376 6.5964656e-06 0.00012630814)
(-0.00039139848 7.4769045e-06 0.00015706047)
(-0.00043493954 2.9452517e-06 0.00017743182)
(-0.00045451155 1.2388547e-05 0.00018412946)
(-0.00025976709 -0.00013143644 6.0665432e-06)
(-0.00010860374 -4.6380721e-05 0.00010335901)
(-0.00043233105 4.7043054e-06 0.00016917327)
(-0.00045040053 1.7001198e-05 0.00017520012)
(-0.00045435497 7.0645239e-06 0.00017886295)
(-0.00048637078 1.1865596e-05 0.00018683077)
(-0.00049435233 1.2855985e-05 0.00019259378)
(-0.00046397036 5.1768156e-06 0.00018328274)
(-0.00018741821 -2.8165475e-05 8.0266203e-05)
(-0.00017448861 9.1366946e-06 9.4448795e-05)
(-0.00050958917 3.5060904e-06 0.00019763409)
(-0.00051020391 7.3149032e-06 0.00019422746)
(-0.00018176465 1.1192394e-05 9.7954432e-05)
(-0.00034530421 1.6294967e-05 0.00021259693)
(-0.00015781228 1.089975e-05 8.5303427e-05)
(-0.00048627004 -1.6640327e-06 0.0001935784)
(-0.00045520411 -7.9397038e-07 0.00017256354)
(-0.00049474505 1.0589718e-06 0.0001982173)
(-0.00049341708 -4.3906921e-06 0.00019362534)
(-0.00050842812 -8.0555383e-06 0.00020000392)
(-0.00049931063 -4.6034964e-07 0.00019943018)
(-0.00038366296 1.6816972e-05 0.00021957357)
(-0.00046687126 -1.0791843e-05 0.00018792494)
(-0.00040806285 9.8927082e-07 0.00016225326)
(-0.00046891767 -8.784251e-06 0.00019285047)
(-0.00047806841 -1.633661e-05 0.0002011189)
(-0.0004613612 -1.184702e-05 0.00018568757)
(-0.00046339825 -1.2758059e-05 0.00019163336)
(-0.00043242228 -9.604014e-06 0.00017761552)
(-0.00046247673 -1.2464963e-05 0.00019234219)
(-0.00047814488 -1.9279216e-05 0.00019949594)
(-0.00029260681 -0.00013148682 3.3220029e-05)
(-0.00045361773 -7.9803655e-06 0.00018684694)
(-0.00036011223 -1.6240346e-05 0.00015139134)
(-0.00048446833 -1.5279636e-05 0.00020684545)
(-0.00036757378 -7.1817008e-06 0.00019852212)
(-0.00041057387 -2.3420576e-05 0.00018039556)
(-0.00042601805 -1.8280042e-05 0.00018233976)
(-0.00010749394 9.8125831e-05 -1.160033e-05)
(-0.00024981036 -7.4466538e-06 0.00013780526)
(-0.00045189371 -6.9157359e-06 0.00018722794)
(-0.00043413865 -1.3623695e-05 0.00018190859)
(-0.00019495019 7.1626173e-05 3.1170881e-05)
(-0.00041176555 5.7348768e-06 0.00016459144)
(-0.00041426878 1.0473577e-05 0.00023478656)
(-0.0004589426 1.6186897e-05 0.00025844504)
(-0.00043081295 -1.2375908e-05 0.0001814132)
(-0.00012686756 7.7663162e-05 -3.5919841e-06)
(-0.00043864156 -3.4980988e-06 0.00017603924)
(-0.00032294989 9.1112869e-06 0.00012008115)
(-0.00031958244 -7.6212496e-06 0.00013243607)
(-0.00039755699 -1.2674481e-05 0.00016711911)
(-0.00044247865 6.6342401e-06 0.0001672717)
(-0.00044275457 1.1719619e-05 0.00016879542)
(-0.00031449662 -1.1322091e-05 0.00012810496)
(-0.00045264058 5.2914647e-06 0.00025304403)
(-0.00045681858 -2.2418805e-06 0.00018867101)
(-0.00041643328 -3.0123322e-06 0.00016102382)
(-0.00044052931 1.9106037e-05 0.00016725907)
(-0.00010605378 -4.0354703e-05 0.00010034221)
(-0.00038059054 -5.8382058e-06 0.00015321759)
(-0.00039832175 -1.567055e-05 0.00016408318)
(-0.00034045157 -8.8078532e-06 0.00019609052)
(-0.00035206762 4.9645619e-06 0.00015627949)
(-0.00052067884 1.6227275e-05 0.00019422893)
(-0.0002931416 -1.4546363e-05 0.00011612496)
(-0.00033632028 -2.3219975e-06 0.00013653805)
(-0.00031172796 -1.4431025e-06 0.00018258898)
(-0.0003581428 6.0129717e-06 0.00015702011)
(-0.00040462163 -6.42579e-06 0.00023146956)
(-8.7643633e-05 -3.7812741e-05 7.0288535e-05)
(-0.0003716771 9.6530021e-06 0.00014533582)
(-0.0002650923 -7.0531655e-06 0.00014791748)
(-0.00033677144 -2.3598811e-06 0.00013416802)
(-0.00030450005 -1.4209661e-05 0.00012205676)
(-0.00012110855 -4.5662915e-05 9.8311691e-05)
(-0.00040076638 1.3514111e-05 0.00015251117)
(-0.00039482622 1.398757e-05 0.0002252026)
(-0.00041869112 -1.2471353e-05 0.00017725693)
(-0.00033627152 -9.2685721e-06 0.000182769)
(-0.00037857436 -1.0176772e-05 0.00020645516)
(-0.00026895747 -8.7583198e-06 9.9707108e-05)
(-0.00024416261 2.1435815e-05 0.00012625935)
(-0.00028152324 -1.6993333e-05 0.00010809414)
(-0.00031091346 5.9900502e-06 0.0001437459)
(-0.0002925647 6.9310908e-06 0.00017339811)
(-0.00032914247 -8.0717083e-06 0.00012255697)
(-0.00041287808 -1.4133373e-05 0.00017734437)
(-0.00029924844 -7.2382244e-06 0.00011933649)
(-0.00040861014 -1.9079068e-05 0.00017852841)
(-0.00015068489 -3.4189987e-05 6.9686643e-05)
(-0.00041327236 -1.4428514e-05 0.00017367168)
(-0.00029795667 1.3864535e-06 0.00010806066)
(-0.00021082391 1.0671625e-05 0.00010422299)
(-0.0003557488 -7.5300108e-06 0.00014204182)
(-0.00031773107 -2.1935763e-05 0.00013432289)
(-0.00045189955 -4.2727089e-06 0.00018800948)
(-0.00033698406 2.7057699e-06 0.00016163056)
(-0.00030276366 2.0888863e-06 0.00010541109)
(-0.00034175896 -3.7048882e-06 0.00012578897)
(-0.0003958673 -9.1772962e-06 0.00022156541)
(-0.00035896945 -1.5108898e-05 0.00014118368)
(-0.00038286638 2.1599344e-06 0.00016135704)
(-0.00025614785 -3.6643641e-06 8.2727215e-05)
(-0.00034977746 -9.0312617e-08 0.0001256615)
(-0.00036342218 -9.009202e-06 0.00014214085)
(-0.00044879641 9.8024822e-06 0.00024867071)
(-0.00033680964 1.3127252e-05 0.00014116741)
(-0.00027883266 1.5711687e-05 0.00011594568)
(-0.00043908219 1.0787353e-05 0.00024515254)
(-0.00019708844 1.1254178e-05 9.6925284e-05)
(-0.00041703603 -2.2842434e-05 0.00018894886)
(-0.00030883019 1.2290309e-05 0.00012269366)
(-0.00031291125 4.0615611e-06 0.00011802867)
(-0.00042773917 9.0578831e-06 0.00024889536)
(-0.00038237234 2.1440907e-05 0.00013917838)
(-0.00042336077 2.8066603e-06 0.00016819255)
(-0.00031645526 4.419276e-06 0.0001180526)
(-0.00044365535 -2.2448059e-05 0.00019395142)
(-0.00048174138 -1.6216476e-05 0.00020382303)
(-0.00028446538 -1.4974462e-05 0.00010923175)
(-0.00035597709 -1.8299319e-05 0.00014501001)
(-0.00036083864 -1.8414223e-05 0.00014769955)
(-0.0004517365 8.7560178e-06 0.0002604552)
(-0.00045062407 -8.0219489e-06 0.00018250857)
(-0.00035488607 -7.5630595e-06 0.0001468941)
(-0.00041931718 3.6812154e-06 0.00023648451)
(-0.00029458608 1.1875741e-05 9.2637369e-05)
(-0.00040031458 -9.7646152e-06 0.00016175916)
(-0.0004261464 1.023243e-05 0.00025024141)
(-0.00027542012 -4.9913972e-06 8.2979089e-05)
(-0.00034128401 6.5765994e-06 0.00020369376)
(-0.0001355139 -3.3806407e-05 6.8183124e-05)
(-0.00040133508 2.3178679e-05 0.00015266729)
(-0.00033255574 1.2164447e-05 0.00020009951)
(-0.00035062616 1.6389872e-05 0.00020717449)
(-0.00014613185 -3.8474122e-05 7.3645414e-05)
(-0.00040864144 -3.9343997e-06 0.00016556053)
(-0.00050958019 1.0211647e-05 0.00018899032)
(-0.00015668442 -2.9746626e-05 6.9548551e-05)
(-0.00039989761 -4.7445132e-06 0.00016047256)
(-0.00049327345 1.2724736e-05 0.00019000631)
(-0.00023729448 1.4193397e-06 6.6772568e-05)
(-0.00031787044 6.2177892e-06 8.633265e-05)
(-0.00017068694 -3.6584649e-05 7.7003927e-05)
(-0.00052111774 2.4757259e-05 0.00019581782)
(-0.00050120103 -4.6683186e-05 0.00014364806)
(-0.00050714108 -3.6595693e-05 0.00016046485)
(-0.00028374525 -8.1071426e-07 8.7155647e-05)
(-0.00032312798 -4.6984713e-07 0.00014857461)
(-0.0004346799 -1.489564e-05 0.00018906792)
(-0.0004371854 -1.3817107e-05 0.00018984321)
(-0.00038446547 -3.0842907e-06 0.00015344815)
(-0.0003255188 5.6471109e-06 8.1782019e-05)
(-0.00043143353 1.5809389e-06 0.00016565116)
(-0.00030483358 1.0259891e-05 6.5349242e-05)
(-0.00029796424 -3.100388e-07 7.7242629e-05)
(-0.00030460826 -7.9660683e-06 8.6850429e-05)
(-0.00032536572 1.5657554e-05 0.00019836079)
(-0.00028996431 1.0325271e-05 7.5035446e-05)
(-0.00029783133 8.889356e-06 0.00010070749)
(-0.00030490351 2.2790732e-06 7.4552565e-05)
(-0.00029807193 1.1256562e-05 0.0001010369)
(-0.00029855184 1.7585575e-05 7.3958057e-05)
(-0.00030860137 -2.1603879e-07 9.3017063e-05)
(-0.0001364298 -3.8744744e-05 7.7615569e-05)
(-0.00048948594 -7.6972387e-06 0.00020735075)
(-0.00034669722 6.3221875e-06 0.00016344943)
(-0.00034900569 -1.0078598e-05 0.00011806613)
(-0.0002273746 9.3648125e-06 9.2255833e-05)
(-0.00035259189 -1.9896123e-05 0.00012684186)
(-0.00037213365 -5.5346294e-06 0.00014813481)
(-0.00036951197 2.7384873e-05 0.00013929417)
(-0.00035042971 -4.1497581e-06 0.00014987395)
(-0.00035662558 -4.5476084e-06 0.0001206928)
(-9.060017e-05 1.2973705e-05 -2.196012e-05)
(-0.00033248419 8.4901007e-05 9.7326225e-05)
(-0.0003168919 1.2422256e-06 0.00018281919)
(-0.00029558477 3.4302273e-06 0.00017528777)
(-0.00027176078 -6.8583476e-06 0.00015405871)
(-0.00030977094 -5.9324426e-06 0.0001679381)
(-0.00037796293 -4.5004066e-06 0.00021599951)
(-0.00018079387 -4.0442428e-05 8.2354563e-05)
(-0.00051102875 -9.6892471e-06 9.7782792e-05)
(-0.00036206261 -7.1470961e-06 0.0002021397)
(-0.00034444044 8.8161408e-06 0.00019559967)
(-0.00032316629 -1.2203135e-05 0.00018666998)
(-0.00034562275 1.0509256e-05 0.00019841469)
(-0.00038402372 -1.2399623e-06 0.00021549967)
(-0.00032243767 -1.9762791e-06 0.00018485737)
(-0.00040434265 2.2281394e-05 0.00022832802)
(-0.00039106457 2.2898541e-05 0.00023423522)
(-0.00044552852 2.6436924e-05 0.00026799573)
(-0.00045365528 2.7118676e-05 0.00026638813)
(-0.00037597211 2.0514742e-05 0.00023216748)
(-0.00033552598 -5.3848338e-06 0.00018430685)
(-0.00037963933 2.4012047e-05 0.00021982266)
(-0.00048835819 2.9522336e-05 0.00026781734)
(-0.00033778165 -5.6041774e-06 0.0001903804)
(5.6940123e-05 -0.00011010371 4.1871354e-05)
(-0.00043062275 1.6957574e-05 0.00023592858)
(-0.00043399295 1.384653e-05 0.00023856966)
(-0.00032853657 3.4947187e-06 0.00018647687)
(-0.00034311181 -7.8044872e-06 0.00018925716)
(-0.00035219479 -1.1073721e-05 0.0002001733)
(-0.00036500195 -9.5469112e-06 0.00020473072)
(-0.00039657535 -4.220178e-06 0.00022398175)
(-0.00035710479 -8.7236274e-06 0.00019657911)
(-0.00035296578 -1.0726178e-06 0.00019363297)
(-0.0003386953 -6.6499307e-06 0.00019291594)
(-0.00040548068 -9.8862657e-06 0.00022276449)
(-0.00043477787 1.7194189e-06 0.00025197631)
(0.00024060773 -1.0932918e-05 -9.8711807e-05)
(-0.0004354045 1.1277647e-05 0.00024011446)
(-0.00045489761 1.5370752e-05 0.00025647948)
(-0.00040496923 2.5453588e-05 0.00023312275)
(-0.00038292872 -8.3851903e-06 0.00021559964)
(-0.00038140922 -5.9344018e-06 0.00021098794)
(-0.00033995327 -3.1123316e-06 0.00018746554)
(-0.00039419479 1.0920942e-06 0.00022295304)
(-0.00038995508 -5.6897876e-06 0.00021363529)
(-0.0003290141 2.8053283e-06 0.00018670735)
(-0.0003911956 -4.2377185e-06 0.00021415282)
(-0.00033581585 6.0125788e-06 0.00016366)
(-0.00036810056 -2.0888504e-06 0.00021046616)
(-0.00043646383 7.3643279e-06 0.00024680731)
(-0.00043614912 2.7712259e-05 0.00025004895)
(-0.00039740226 -2.6216256e-06 0.00022460004)
(-0.00038242837 4.7733738e-07 0.00016644535)
(-0.00037627906 1.9776099e-07 0.00021051113)
(-0.00045145131 1.5254197e-05 0.00026061612)
(-0.00041193767 4.5880801e-06 0.00022517249)
(-0.0004525612 1.0871389e-05 0.00025259607)
(-0.00039674842 2.5712675e-05 0.00023311347)
(-0.0003795236 7.2718104e-06 0.0002156509)
(-0.00038296071 1.0188185e-05 0.00022105776)
(-0.00042557131 6.5256705e-06 0.00023566245)
(-0.00038518545 4.0465677e-06 0.00022160792)
(-0.00042212023 2.4904129e-05 0.00023770563)
(-0.0003850081 7.8997535e-06 0.00021380115)
(-0.00031596653 4.4858795e-06 0.0001821744)
(6.0732635e-05 5.3779574e-05 -6.9288828e-05)
(-0.00032272981 5.4372508e-06 0.00017695443)
(-0.00031439303 5.5334283e-06 0.00018159976)
(-0.00050043799 -1.1151039e-05 0.00020530279)
(-0.00036183845 5.03398e-06 0.00015821227)
(-0.000438083 9.3068473e-06 0.00024985409)
(-0.00044342683 -1.6556162e-05 0.00018421417)
(-0.00046020462 1.269877e-05 0.00026293434)
(-0.00035404438 7.5700844e-06 0.00020221701)
(-0.00043733441 1.2808135e-05 0.00025092022)
(-0.00039821936 2.4134967e-05 0.00022737589)
(-0.00042274472 -5.2424452e-06 0.00018606004)
(-0.00045364787 -8.0161462e-06 0.00018856344)
(-0.00037579192 6.7694537e-06 0.00020868372)
(-0.00034874745 7.5227722e-06 0.00020343369)
(-0.00044702695 1.0442368e-05 0.00025402506)
(-0.00035241047 1.2162243e-05 0.00020776275)
(-0.00038548303 8.3597015e-06 0.00016904834)
(-0.00033609527 4.2274317e-06 0.00020026264)
(-0.00036714029 5.3971183e-06 0.00021420079)
(-0.00034273224 5.7156008e-06 0.00019783025)
(-0.00038082607 5.3608087e-06 0.00022362374)
(-0.00039677922 1.1254932e-05 0.00022942043)
(-0.00043143042 1.0163704e-05 0.00024779455)
(-0.00037836186 7.4701606e-06 0.00021349143)
(-0.00055814291 6.8997142e-05 0.00031975249)
(-0.00040858106 7.152493e-06 0.00023880362)
(-0.00036109346 2.9868042e-06 0.00020497634)
(-0.00012366251 -4.6922145e-05 8.978423e-05)
(-1.8672234e-05 7.0064799e-06 -3.8473363e-06)
(-0.00029756781 -2.2091848e-05 9.1043302e-05)
(-0.00039882407 7.0360613e-06 0.00023029157)
(-0.00044176343 8.5065306e-06 0.00024930756)
(-0.0004381949 3.2828432e-06 0.00024918053)
(-0.00038269793 -1.5588729e-05 0.00022701862)
(-0.00038227662 1.0746544e-06 0.0002149898)
(-0.00037464319 -1.0005211e-06 0.00021445353)
(-0.00010581402 -3.6991075e-05 6.1553714e-05)
(-0.00033109695 3.3130151e-06 0.00015409679)
(-0.00040888144 -3.8215407e-06 0.00022939366)
(-0.00034192187 1.2160505e-05 0.00020452415)
(-0.00036329376 3.216615e-06 0.00020907699)
(-0.00036827493 -1.0327754e-05 0.00021833068)
(-0.00041266937 -5.0357649e-06 0.00022416102)
(-0.00041495337 -1.9765294e-06 0.00022825114)
(-0.00044533686 -2.7156867e-05 0.00020166514)
(-0.00040916082 5.6457134e-06 0.0002311448)
(-0.00032651186 8.4663943e-06 0.00018793998)
(-0.00038653031 1.213358e-05 0.00022977273)
(-0.00043890664 -1.2257526e-06 0.00023887208)
(-0.00036784033 3.1375697e-06 0.00020478748)
(-0.00044522651 -2.7697955e-06 0.00023913117)
(-0.00044840449 -1.2545513e-05 0.00025001157)
(-0.00050932926 -1.6021949e-06 0.00021296809)
(-0.00033225192 -2.1617553e-06 0.0001333878)
(-0.00047634753 -2.2298257e-05 0.00020297057)
(-0.00037125559 2.7166626e-06 0.00020599498)
(-0.00040960052 1.136782e-06 0.00022953046)
(-0.00037222389 2.3678727e-06 0.00021024644)
(-0.00037121501 -8.0360153e-07 0.00017814648)
(-0.00021128359 -6.5013975e-06 9.1467827e-05)
(-0.00034940243 2.5279663e-06 0.00020218026)
(-0.00043628249 -3.5273411e-06 0.00023638747)
(-0.00044574364 -1.9066713e-05 0.00019555241)
(-0.00042995529 -6.1805622e-06 0.00018670468)
(-0.00043049337 -7.388645e-05 7.343169e-05)
(-0.00046418519 -1.2747149e-05 0.00025189821)
(-0.00036780362 -9.2747982e-06 0.00020021813)
(-0.00052668126 -2.7773919e-06 0.00029462935)
(-0.00036525397 3.9271846e-08 0.00020262597)
(-0.00042803436 -6.8900971e-06 0.0002381206)
(-0.00043220475 -5.1085742e-06 0.00024184175)
(-0.00040396428 -5.5862252e-05 7.1035626e-05)
(-0.00037201344 1.3694613e-05 0.00022867562)
(-0.00031075045 2.5413256e-06 0.00018624466)
(-0.00044660994 -4.8654277e-06 0.00024046305)
(-0.00037811634 -7.6447266e-06 0.00019955858)
(-0.00035799786 1.0057286e-06 0.00019992223)
(-0.00045838556 -3.8788992e-06 0.00024468779)
(-0.00037411839 8.3332107e-06 0.00020888511)
(-0.00044451734 -2.1552166e-06 0.00024196109)
(-0.00049099764 -2.8566108e-07 0.00027150436)
(-0.00027162817 -1.6327159e-05 0.00010827158)
(-0.00036853077 2.2725073e-06 0.00020243926)
(-0.00045751246 2.888839e-09 0.00024657379)
(-0.00050070807 5.7130382e-06 0.00028245836)
(-0.00046220972 3.8113692e-06 0.00027823752)
(-0.00035035627 -1.1737855e-07 0.0001957387)
(-0.00036454406 4.3119787e-06 0.00020996422)
(-0.00038349112 2.0622087e-05 0.00022600446)
(-0.00036974764 1.2073459e-05 0.00022404755)
(-0.00038544315 2.0005962e-06 0.00020743875)
(-0.00033801713 8.063428e-06 0.00019623652)
(-0.00036164974 3.4658207e-06 0.00019662309)
(-0.00036894717 -1.7808127e-06 0.00020222121)
(-0.00038495636 -6.8912588e-07 0.00020544802)
(-0.00032575744 -6.4451887e-07 0.00015934465)
(-0.00025497712 6.3908009e-06 0.00015108144)
(-0.00036731149 6.0100359e-06 0.00020476977)
(-0.00036877275 -4.7496095e-06 0.00019998217)
(-0.00034945452 3.2426547e-07 0.0001954412)
(-0.00023979158 -1.4451279e-05 0.00010056805)
(-0.00046648417 -1.415332e-06 0.00024875786)
(-0.00033441458 4.9058414e-07 0.00018173222)
(-0.00041127344 -4.0429732e-06 0.00021692803)
(-0.00044512865 -2.7581585e-06 0.00024094446)
(-0.00041521875 -1.6989939e-06 0.00021630502)
(-0.00039232726 3.6081209e-06 0.0001711149)
(-0.00033348432 3.5147415e-06 0.00018494431)
(-0.00035266126 -4.4883009e-06 0.00018429614)
(-0.00031339717 1.3871109e-05 0.00018877325)
(-0.00040544175 -5.7764671e-06 0.00020824719)
(-0.00065876389 8.1335188e-05 0.00034900647)
(-0.00035143419 -7.7588551e-06 0.00018092423)
(-0.00036797709 1.8451327e-05 0.00022599395)
(-0.00034124172 -2.2272671e-06 0.0001773895)
(-0.00032748607 6.6778227e-06 0.00019336872)
(-0.00041462334 -3.484289e-06 0.00021861991)
(-0.00033986462 1.3252925e-05 0.00020200023)
(-0.00032170127 -9.8672768e-07 0.00017686098)
(-0.00032946987 1.0477541e-05 0.00018558515)
(-0.00026654585 1.5145941e-06 0.00013240064)
(-0.00039980892 -7.1008464e-06 0.00021450306)
(-0.00028757073 7.3652781e-06 0.00017276543)
(-0.00033894931 7.6669049e-06 0.00018566366)
(-0.00039342092 -6.7665773e-06 0.00020458136)
(-0.00034962185 4.4696596e-06 0.00018469952)
(-0.00041363568 -3.2965307e-06 0.00020798674)
(-0.00045251392 -6.8196853e-06 0.00025082686)
(-0.00045647512 -9.9289563e-06 0.00024667809)
(-0.00025518919 2.156312e-05 0.00017280935)
(-0.00039419877 2.3473231e-05 0.00023613089)