/*--------------------------------*- C++ -*----------------------------------*\
  =========                 |
  \\      /  F ield         | OpenFOAM: The Open Source CFD Toolbox
   \\    /   O peration     | Website:  https://openfoam.org
    \\  /    A nd           | Version:  11
     \\/     M anipulation  |
\*---------------------------------------------------------------------------*/
FoamFile
{
    format      ascii;
    class       volVectorField;
    location    "10000";
    object      wallShearStress;
}
// * * * * * * * * * * * * * * * * * * * * * * * * * * * * * * * * * * * * * //

dimensions      [0 2 -2 0 0 0 0];

internalField   uniform (0 0 0);

boundaryField
{
    wall-fluid_domain
    {
        type            calculated;
        value           nonuniform List<vector> 
34505
(
(6.2248146e-05 5.0852823e-06 1.1191357e-05)
(6.1546931e-05 -1.2889189e-05 6.0674138e-06)
(0.00012282363 2.7437807e-05 6.3768752e-05)
(6.4668938e-05 -1.4183363e-05 5.6035258e-06)
(8.1069136e-05 2.7130011e-06 9.4243182e-06)
(0.00011735073 2.4179514e-05 9.3141962e-05)
(5.0832705e-05 -9.9631875e-06 7.3576575e-06)
(6.3156584e-05 1.4001315e-05 1.3108669e-05)
(8.3335116e-05 -8.5544107e-06 9.043955e-06)
(6.0158096e-06 6.8784898e-06 1.2301904e-06)
(0.00011508744 2.436918e-05 9.312082e-05)
(0.00012353786 -2.7698646e-05 6.4184316e-05)
(6.8299233e-05 8.4162783e-06 1.1789577e-05)
(8.2456266e-05 5.7235017e-06 9.6311039e-06)
(8.0949854e-05 -3.5861658e-06 8.6751562e-06)
(6.4731402e-05 -6.2323511e-06 4.5534197e-06)
(9.4540631e-05 3.2407305e-06 1.728459e-05)
(9.057826e-05 8.6481518e-06 1.1111968e-05)
(8.7727597e-05 -3.4338743e-06 1.6942351e-05)
(0.00010244075 -1.3134642e-05 2.5752496e-05)
(6.312014e-05 4.0555893e-06 1.0891065e-05)
(7.7583885e-05 -8.2582371e-06 9.8323389e-06)
(9.9043179e-05 1.3641022e-05 2.7625225e-05)
(5.3931458e-05 -1.4975582e-05 1.1767276e-05)
(6.9210248e-05 -5.9225931e-06 7.5218953e-06)
(4.4779194e-05 -1.2452894e-05 5.2403318e-06)
(4.4082952e-05 -1.6463775e-05 7.4350416e-06)
(-4.1682345e-06 -2.0334838e-07 -4.2983717e-06)
(6.2798158e-05 -1.0447699e-05 7.9023637e-06)
(-2.1235932e-06 -1.0874079e-06 -2.3898984e-06)
(0.00013042122 2.1113946e-05 4.654828e-05)
(7.1588498e-05 8.0390272e-07 1.0431252e-05)
(3.9722868e-05 9.1278118e-06 8.6819247e-06)
(0.00011591996 -1.9516487e-05 4.1558028e-05)
(4.3156288e-05 1.1234257e-05 1.1840867e-05)
(-3.2559837e-06 -4.7718027e-07 -2.7569357e-06)
(8.2045544e-05 -3.1434291e-06 6.4594526e-06)
(0.00012237862 3.1424845e-05 7.493252e-05)
(0.00011905131 3.3741296e-05 8.0173195e-05)
(8.6776949e-05 3.0887889e-06 9.2113979e-06)
(3.9924721e-05 1.0151638e-05 9.0416477e-06)
(6.6881778e-05 -6.7614433e-07 1.6964426e-05)
(-4.2242344e-06 -2.0677759e-07 -3.4277967e-06)
(-1.0402518e-06 -1.892902e-06 -2.244321e-06)
(9.4350721e-07 -3.0979615e-06 -2.0029214e-06)
(8.8656249e-05 3.3975205e-06 8.1306247e-06)
(-1.7086855e-06 5.0374452e-07 -2.0754362e-06)
(5.8467711e-05 1.8005656e-05 1.1988346e-05)
(9.356524e-05 2.5601792e-06 2.1917186e-05)
(0.00010443238 -2.7280316e-05 6.4163052e-05)
(6.1434608e-05 9.5696188e-06 1.1957413e-05)
(-4.8329655e-06 4.7136034e-07 -3.5876337e-06)
(0.00010447571 -2.6485057e-05 6.9673849e-05)
(7.0701683e-05 -7.6933046e-07 1.2074019e-05)
(7.6336048e-05 1.0457956e-06 8.3508185e-06)
(8.5530561e-05 8.7948205e-07 9.3391799e-06)
(5.5311882e-05 1.3981747e-05 9.6676552e-06)
(6.975702e-05 4.0237485e-06 1.0972295e-05)
(-2.8766492e-06 1.71787e-07 -2.4662501e-06)
(6.9299805e-05 1.3153957e-05 1.1693673e-05)
(-3.903898e-06 -2.8540113e-08 -3.9252146e-06)
(7.6993302e-05 9.5072736e-06 1.1610216e-05)
(9.0917603e-05 4.9898996e-06 1.0225603e-05)
(-1.1957075e-06 1.2476963e-06 -1.6091634e-06)
(4.26068e-05 1.3033236e-05 9.6795158e-06)
(-3.7906266e-06 -4.0857413e-07 -3.5444672e-06)
(5.8284891e-05 1.2236991e-05 9.6433329e-06)
(4.1396437e-05 1.5050432e-05 1.0969125e-05)
(6.098438e-05 1.2785926e-05 1.1409221e-05)
(0.00012665088 2.9951905e-05 4.8314966e-05)
(0.00011078965 -2.0404671e-05 4.4070291e-05)
(0.00010187271 2.3707542e-05 4.6854884e-05)
(0.00012940735 -2.5962363e-05 5.5563426e-05)
(0.00010064232 -8.1547001e-06 2.3322199e-05)
(9.9511364e-05 4.6682929e-06 2.5052247e-05)
(3.6088847e-05 -1.2205352e-05 3.0504158e-06)
(0.00010425434 1.6784845e-05 3.564505e-05)
(5.4281891e-07 1.9713976e-06 -2.1478835e-06)
(9.0846228e-05 -1.4393979e-05 3.3804919e-05)
(3.3354627e-05 -2.1556301e-05 5.8482223e-06)
(9.3106367e-05 -3.4767191e-06 1.4201111e-05)
(3.1828543e-05 -1.5087321e-05 3.9627428e-06)
(2.0362714e-05 -1.581893e-05 5.0189801e-06)
(-5.735056e-06 -2.9764652e-07 -3.5489689e-06)
(0.00012146291 2.979934e-05 6.4658879e-05)
(8.0759971e-05 -2.2156761e-06 1.2997373e-05)
(9.1097927e-05 -2.0367969e-05 7.5337218e-05)
(0.00013436691 -2.4790427e-05 0.00010290618)
(4.0524573e-05 -1.2191377e-05 4.289867e-06)
(0.00012019198 -2.7269284e-05 6.2518554e-05)
(3.001142e-05 1.6041038e-05 7.2647278e-06)
(-2.9295741e-06 -1.6873565e-06 -1.9027579e-06)
(0.00010009568 1.3281168e-05 3.2119579e-05)
(8.8068483e-05 -1.2420774e-05 2.9711391e-05)
(2.9699336e-05 1.1990896e-05 5.5245336e-06)
(3.1975772e-05 7.0915178e-06 5.4392638e-06)
(9.2059108e-05 2.1522288e-05 3.6608475e-05)
(2.2086074e-05 1.5250941e-05 6.6633627e-06)
(0.00010464667 2.0838118e-05 4.5445288e-05)
(-9.7578139e-07 -2.1336917e-06 -2.3782083e-06)
(-3.0305194e-06 -4.9204804e-07 -3.2134728e-06)
(0.00011420656 2.6460919e-05 5.6817565e-05)
(-4.1995643e-07 -2.2295077e-06 -3.0310246e-06)
(-2.4180022e-06 -1.1081935e-06 -2.6868832e-06)
(0.00010818926 -2.0836873e-05 4.3998021e-05)
(0.00010518261 -1.7406923e-05 4.395891e-05)
(0.00012839787 -3.1423324e-05 6.140748e-05)
(3.5830109e-05 1.1161586e-05 7.6377512e-06)
(-2.4581803e-06 1.029446e-06 -1.5326886e-06)
(3.7752359e-05 -1.5592821e-05 3.9454617e-06)
(-2.8242558e-06 8.9502872e-08 -2.918351e-06)
(-1.1666832e-06 1.202272e-06 -1.6886243e-06)
(-1.5056483e-06 1.5761526e-06 -1.3701258e-06)
(-2.265638e-06 5.2861446e-07 -2.4967041e-06)
(3.7096732e-05 -1.7346005e-05 7.0688031e-06)
(3.1643942e-05 1.1081484e-05 7.8508637e-06)
(9.4689039e-05 1.6466825e-05 3.6530954e-05)
(3.6541574e-05 1.4424287e-05 9.2176187e-06)
(0.00012275635 -1.5674612e-05 4.4725823e-05)
(-8.1363446e-07 -2.5110206e-06 -2.668543e-06)
(0.00010417541 1.7895156e-05 4.3640906e-05)
(0.00010316386 1.3527926e-05 3.845263e-05)
(-3.4726007e-06 -1.6225658e-06 -2.2699424e-06)
(-5.5397544e-07 -2.9765649e-06 -1.8912143e-06)
(0.00012206411 -1.8084749e-05 4.275727e-05)
(0.00010281006 2.0355434e-05 4.2305472e-05)
(-3.6214082e-06 -5.6927481e-07 -3.6756997e-06)
(0.00010331431 -1.9417027e-05 4.445274e-05)
(8.3775358e-05 1.8644695e-05 4.5572108e-05)
(0.00011907287 -2.0306909e-05 4.5969905e-05)
(0.00010585712 -2.3430822e-05 5.0403845e-05)
(1.8093176e-05 -9.9729423e-06 3.5579355e-06)
(0.00010724863 2.4576852e-05 5.0207808e-05)
(-6.4917765e-06 -5.7875081e-07 -3.1390848e-06)
(-4.8184895e-06 3.6959204e-08 -4.1912618e-06)
(0.00012236722 -1.9436463e-05 5.1634059e-05)
(-1.0907958e-06 -2.2184488e-06 -2.1739659e-06)
(-1.0666407e-06 -3.1378739e-06 -1.7466521e-06)
(1.9447163e-05 9.5783692e-06 4.9332848e-06)
(1.0520179e-06 -3.4042996e-06 -2.1050613e-06)
(-2.8851611e-06 -1.1380785e-06 -3.0425816e-06)
(-3.9657394e-06 -6.6017197e-07 -3.818427e-06)
(-3.6182302e-06 4.7224428e-08 -3.1514854e-06)
(-7.4182842e-07 1.2246428e-06 -2.1603055e-06)
(-3.3671349e-06 7.6320025e-07 -2.1312309e-06)
(-4.1025321e-06 7.9643895e-08 -4.8351987e-06)
(-5.5201945e-07 1.9200712e-06 -1.4383911e-06)
(-5.2254704e-06 -1.6522262e-07 -4.1379495e-06)
(-4.8853689e-06 -2.1127999e-07 -4.1383312e-06)
(-1.3433027e-06 -2.2779359e-06 -2.9273386e-06)
(9.4130004e-07 -3.3649099e-06 -2.1403108e-06)
(-1.6685083e-06 -2.8424248e-06 -1.6825744e-06)
(-1.7279768e-06 -1.827625e-06 -2.2712486e-06)
(-3.2478134e-06 -9.7140259e-07 -3.0950908e-06)
(2.8194086e-07 -3.1479784e-06 -2.0379083e-06)
(-2.5534729e-06 -1.6504933e-06 -2.2054571e-06)
(-4.2175506e-07 -2.5869986e-06 -1.5601374e-06)
(-3.0930697e-06 -1.3692039e-06 -3.2662731e-06)
(1.1093221e-06 -4.1737482e-06 -1.1333728e-06)
(-4.1768689e-06 -1.0828198e-06 -3.514664e-06)
(3.3653631e-07 -3.9320423e-06 -3.4595185e-07)
(-2.4586197e-06 -1.696128e-06 -2.8833918e-06)
(-4.203732e-06 -6.0775144e-07 -4.0141757e-06)
(-2.1268977e-06 -2.4006916e-06 -1.2690503e-06)
(-2.7273869e-06 -1.98184e-06 -2.9461471e-06)
(-3.8617181e-06 -1.3350463e-07 -5.0682548e-06)
(-5.2165419e-06 -8.7014742e-07 -4.0355879e-06)
(2.7437474e-06 -5.3964731e-06 -7.8763601e-07)
(-4.9513973e-06 -4.4295445e-07 -4.7048154e-06)
(1.2754782e-06 -3.0221728e-06 -1.6639266e-06)
(1.5059869e-06 -4.4884358e-06 -9.0412077e-07)
(-5.6437428e-06 -3.6108944e-07 -4.0398883e-06)
(-5.9394119e-06 -2.117364e-07 -5.1211668e-06)
(-9.5840526e-07 1.9644172e-06 -1.382773e-06)
(-1.8319736e-06 1.1879881e-06 -1.9371407e-06)
(-5.2163948e-06 -3.9174539e-07 -5.4743237e-06)
(-5.2460177e-06 -6.6072163e-08 -3.2893988e-06)
(-4.3353789e-06 -4.3005123e-07 -4.4645142e-06)
(8.6950444e-08 2.2970104e-06 -1.569727e-06)
(-5.4975546e-06 -6.0721848e-07 -4.5231656e-06)
(-5.234254e-06 -7.5007806e-07 -4.1875939e-06)
(0.00013392367 -2.7964002e-05 0.00012014867)
(-6.2242755e-06 -5.8641887e-07 -5.1598303e-06)
(3.8134259e-06 -6.0653759e-06 -5.521472e-07)
(-3.5067785e-06 8.0457921e-07 -2.2291372e-06)
(0.0001309051 -2.4255873e-05 0.00011994257)
(-5.9163796e-06 -2.1715774e-07 -5.55637e-06)
(-6.6718657e-06 -5.1339408e-07 -5.1193956e-06)
(-7.4000692e-06 -4.5954251e-07 -4.9927242e-06)
(-6.4464644e-06 -1.6989556e-07 -6.3055766e-06)
(-7.4516888e-06 -8.0199241e-07 -7.167531e-06)
(-8.4314794e-06 -5.9714062e-07 -5.3799943e-06)
(-8.7240955e-06 -9.2868139e-07 -6.3352013e-06)
(-6.1130505e-06 -3.2957694e-07 -6.0783806e-06)
(-8.5700458e-06 -3.8633447e-07 -6.2332845e-06)
(2.6848382e-06 3.6441035e-06 -9.1562862e-07)
(-6.4015927e-06 -5.4838669e-07 -7.4707634e-06)
(-6.7820059e-06 -2.3467231e-07 -5.6101727e-06)
(0.00011171233 2.3564909e-05 0.00010343589)
(-6.1016794e-06 -3.6326014e-07 -5.5925041e-06)
(0.00012010174 2.0964294e-05 0.00011020745)
(-5.6498241e-06 1.336701e-08 -5.0052052e-06)
(-6.0462506e-06 2.740967e-07 -5.2337648e-06)
(-5.8719959e-06 -5.9906929e-07 -5.054768e-06)
(-4.5663585e-06 1.2539472e-07 -4.6453056e-06)
(-2.1646936e-06 1.7958915e-06 -1.8936554e-06)
(2.4620071e-07 2.2687422e-06 -1.5989156e-06)
(-7.8598256e-06 4.0101568e-08 -6.0718973e-06)
(-1.3393126e-06 1.897855e-06 -1.4480328e-06)
(3.6291282e-06 -4.0789572e-06 -2.0056099e-06)
(-6.5529887e-06 -1.0211042e-07 -5.7790637e-06)
(-4.1119756e-06 8.1894843e-07 -3.2821863e-06)
(-3.3775673e-06 8.4239509e-07 -2.5571723e-06)
(-2.8723953e-06 5.9891226e-07 -3.6815255e-06)
(-3.0239467e-08 2.3942901e-06 -1.5748576e-06)
(-4.3394434e-06 2.7178985e-07 -4.611864e-06)
(-1.5649632e-06 7.9890674e-07 -2.9163751e-06)
(-2.2578186e-06 1.3825845e-06 -1.6155574e-06)
(-5.5092948e-06 2.8385204e-07 -5.2566366e-06)
(-3.0105957e-06 9.6961922e-07 -3.0278814e-06)
(1.0994413e-06 3.281777e-06 -9.4945821e-07)
(-3.8742257e-06 1.2594286e-06 -3.2779557e-06)
(9.5725725e-07 3.369297e-06 -1.0051454e-06)
(-7.5360015e-07 1.8593599e-06 -1.9910987e-06)
(-3.3271751e-06 1.487862e-06 -3.3078904e-06)
(-5.97424e-06 5.3389985e-07 -4.5856839e-06)
(-5.9731576e-06 5.8044607e-07 -5.6508296e-06)
(1.0679566e-06 4.1181062e-06 -2.4457836e-07)
(-1.1166446e-06 2.7730933e-06 -8.5619238e-07)
(1.1411688e-06 3.5204328e-06 -8.2195754e-07)
(-5.5912228e-06 9.5224037e-07 -5.3292739e-06)
(-3.1053716e-06 2.1480678e-06 -2.5113307e-06)
(-5.4466797e-06 1.9183406e-06 -3.9539474e-06)
(-8.7245084e-06 1.8707517e-07 -7.0768462e-06)
(1.2922638e-06 2.9803573e-06 -9.2237597e-07)
(-3.080948e-06 2.296435e-06 -4.5307871e-06)
(1.9067067e-05 -8.0014109e-07 1.3190648e-05)
(5.3943751e-05 -5.2867648e-06 5.1017441e-05)
(2.8668263e-05 -1.2870298e-06 2.4527784e-05)
(2.9548653e-05 2.9194125e-06 2.1423591e-05)
(3.864832e-05 -4.3016421e-06 3.1384241e-05)
(4.1411101e-05 -1.4939481e-05 7.4669426e-06)
(9.0242821e-05 2.5741391e-05 7.0481007e-05)
(3.8129428e-05 -5.4959356e-06 3.6013825e-05)
(0.00012654181 -3.6190638e-05 9.2340044e-05)
(4.1080287e-05 -7.9319943e-06 3.8761306e-05)
(4.9346435e-05 -2.0901073e-06 4.4723993e-05)
(2.3867317e-05 -1.2125187e-06 1.5451508e-05)
(0.00011328065 2.5996422e-05 8.763268e-05)
(4.4912047e-05 1.3873644e-05 1.0875112e-05)
(0.00011100049 2.7524676e-05 6.7078721e-05)
(4.8904592e-05 -7.7543275e-07 4.2730266e-05)
(9.5185043e-05 3.4655448e-06 1.5994291e-05)
(9.0938497e-05 2.5580117e-05 6.6852326e-05)
(0.00010917669 -2.5814757e-05 6.4143156e-05)
(4.8819536e-05 -3.8528863e-06 4.2204176e-05)
(0.0001002998 1.6764514e-06 1.7701024e-05)
(3.6616882e-05 -1.4532266e-05 4.7114942e-06)
(0.00013896559 -3.0948805e-05 8.8906102e-05)
(3.5441362e-05 3.8271351e-06 2.8157164e-05)
(4.9127359e-05 -3.3902968e-06 4.8744292e-05)
(1.0196076e-05 3.0896811e-06 1.183832e-05)
(0.00013033868 2.7413743e-05 6.9508094e-05)
(8.4287793e-05 -2.1453232e-07 1.6045831e-05)
(9.3148987e-05 -2.2870914e-06 1.7246589e-05)
(4.3139271e-05 2.1738759e-06 4.1153836e-05)
(0.00012141307 -2.4679924e-05 6.4097774e-05)
(-5.2161831e-06 6.7349324e-08 -3.0836159e-06)
(8.556252e-07 -3.0418496e-06 -1.0456899e-06)
(-2.1746426e-06 -2.223948e-06 -2.1345175e-06)
(3.8800807e-05 3.0188631e-06 4.458067e-05)
(1.5606022e-05 -5.3250599e-07 1.1592713e-05)
(6.1564151e-05 -2.5612554e-06 6.0519409e-05)
(3.7259094e-05 1.3270788e-05 8.8528407e-06)
(3.1690937e-05 9.1942698e-07 2.6481825e-05)
(2.5802598e-05 -1.9482514e-06 2.0264961e-05)
(-6.1774281e-06 -1.0571504e-06 -4.3101146e-06)
(2.8178668e-06 -5.4951459e-06 3.3262872e-07)
(3.9284879e-05 -1.8839925e-06 3.1563761e-05)
(9.2593721e-05 -2.4114135e-05 7.2807317e-05)
(1.4922628e-05 -2.5844998e-06 1.2863061e-05)
(4.7682078e-05 2.3183427e-06 4.3828967e-05)
(-7.5844293e-06 2.1085592e-08 -6.8377001e-06)
(-5.0128833e-06 -6.7833905e-08 -2.9288624e-06)
(3.9748984e-05 -2.5240039e-06 3.968229e-05)
(1.4368776e-06 -4.6079051e-06 -1.5858952e-06)
(4.100951e-05 5.6839846e-06 4.2353815e-05)
(1.8040069e-05 -3.7973225e-06 1.5666652e-05)
(9.8502293e-05 6.8636521e-06 2.5025156e-05)
(8.5400178e-06 1.4088653e-06 6.4795436e-06)
(0.00012589479 -8.1095895e-06 0.00012806564)
(4.613598e-05 1.1949241e-06 4.3445133e-05)
(0.0001227374 5.4140224e-06 0.00012533204)
(9.8817753e-05 1.2871261e-05 3.4910722e-05)
(4.9661698e-05 -9.4239676e-07 4.6211133e-05)
(3.5759319e-06 -4.7489216e-06 -1.5485331e-06)
(5.1794884e-05 1.4090456e-06 4.6067674e-05)
(4.2338971e-05 -1.1370949e-07 4.0866851e-05)
(0.00011318405 -8.0741161e-06 3.7109311e-05)
(3.7323454e-06 -7.8637823e-06 8.1642597e-07)
(0.00012068352 1.5086402e-05 4.6893675e-05)
(0.00010956745 1.1327886e-05 3.321797e-05)
(3.8744381e-05 6.7572165e-06 3.5495342e-05)
(2.9883143e-05 1.7955395e-06 2.1881873e-05)
(-4.4647818e-06 -2.0215541e-07 -4.5003836e-06)
(0.00010394712 -1.0312508e-05 3.3780462e-05)
(2.7153417e-05 -6.4386488e-07 1.8709172e-05)
(-6.5920815e-06 7.1036805e-07 -6.7116654e-06)
(3.3880749e-05 1.1664664e-06 2.57554e-05)
(-5.7776512e-06 1.2327427e-06 -5.6654958e-06)
(4.2331744e-05 4.1206888e-06 3.6467746e-05)
(2.4860843e-05 2.3688838e-08 2.0289868e-05)
(1.9347918e-05 1.3231256e-06 1.6013187e-05)
(6.5443648e-05 9.2301665e-07 5.1809991e-05)
(0.00011736353 2.0074948e-05 5.3327752e-05)
(2.7017355e-05 -8.8487923e-07 2.2421375e-05)
(6.6502854e-06 2.1593636e-06 9.6127886e-06)
(4.3814599e-05 -6.8851146e-08 4.1662366e-05)
(2.9407275e-05 -4.8177426e-07 2.0131208e-05)
(2.7031542e-05 -2.2670863e-06 1.688125e-05)
(1.6033103e-05 1.4940043e-06 1.4334954e-05)
(4.4171159e-05 1.3750733e-06 3.922626e-05)
(0.00010327213 -2.992067e-06 2.3960952e-05)
(3.8318476e-05 2.262944e-06 2.6447955e-05)
(4.9561222e-05 -4.0312124e-06 4.9023897e-05)
(5.4930589e-05 -4.615604e-06 4.5273374e-05)
(4.1346473e-05 -2.2177124e-06 3.6625584e-05)
(2.6537815e-05 2.0025619e-06 2.0759661e-05)
(4.7024707e-05 -2.8963166e-06 4.2143814e-05)
(2.1478677e-05 -8.2803244e-07 1.4530659e-05)
(4.527124e-05 -2.6471514e-06 4.1920844e-05)
(3.8077321e-05 -5.3526389e-07 3.2695418e-05)
(1.1062163e-05 1.6941525e-06 7.632339e-06)
(-4.7994821e-06 -1.1064175e-07 -4.1072946e-06)
(4.05463e-05 -2.0522337e-06 3.4670037e-05)
(1.2810398e-05 -5.4749892e-07 7.2263596e-06)
(4.0919629e-05 -4.6684352e-06 3.9675231e-05)
(3.3759895e-05 3.1217686e-07 2.5156055e-05)
(5.9468516e-05 -6.6979574e-06 5.8158322e-05)
(4.8667783e-05 3.5960243e-06 4.4111028e-05)
(5.2236065e-07 2.7549234e-06 -2.2034101e-06)
(-1.608383e-06 2.643616e-06 -2.5340441e-06)
(2.1694254e-05 9.1368734e-08 1.4735475e-05)
(0.00011197541 -1.5490138e-05 4.1029276e-05)
(2.2674314e-06 4.6511786e-06 1.2686772e-07)
(2.1082468e-05 -2.5504198e-06 1.7362601e-05)
(2.1533763e-05 3.1482328e-06 1.7965889e-05)
(7.6795169e-07 3.0947501e-06 -7.5346516e-07)
(5.8180565e-06 5.299918e-07 6.5059154e-06)
(1.8586866e-05 -1.7482603e-06 1.3634603e-05)
(4.8887956e-05 2.7705866e-06 4.0371534e-05)
(5.7490634e-05 -2.4865857e-07 5.5522377e-05)
(0.00011859467 -2.5162014e-05 5.1553316e-05)
(4.0520606e-05 -6.8434953e-06 4.1366615e-05)
(-6.770293e-06 2.8500109e-07 -3.5212318e-06)
(1.359962e-06 3.7596314e-06 -3.7588123e-07)
(3.8986086e-05 2.7427842e-06 4.4562115e-05)
(4.3878064e-05 7.8322243e-07 3.6132218e-05)
(1.4368549e-05 -1.3422042e-06 9.6119752e-06)
(0.0001222101 9.6869628e-06 0.00012704491)
(0.00012840943 -8.557783e-06 0.00013079509)
(3.7431051e-05 3.4752555e-06 4.0706894e-05)
(3.7346373e-05 -2.4332658e-06 3.0982143e-05)
(3.8212522e-06 5.577327e-06 7.1796723e-07)
(5.4672967e-05 1.8181768e-06 5.0441456e-05)
(1.6736457e-05 -2.615679e-06 1.3675047e-05)
(3.1607248e-05 -6.1732526e-06 2.5467909e-05)
(4.1646312e-05 1.8999468e-06 4.1526637e-05)
(1.6820669e-05 -9.380977e-07 1.1307741e-05)
(3.5481516e-05 -1.5335368e-06 2.6193257e-05)
(5.2829963e-05 1.0637975e-06 5.5443467e-05)
(1.3391077e-05 -1.5406759e-06 1.1509945e-05)
(3.6993301e-05 4.0374595e-06 3.9878727e-05)
(1.6249091e-05 4.0700969e-06 1.8274833e-05)
(5.2623199e-05 6.8842185e-07 5.7835032e-05)
(2.3217669e-06 -3.8315696e-06 -5.9624435e-08)
(-1.047296e-06 -2.2804926e-06 -1.2023249e-06)
(-4.2787195e-06 -1.5045357e-06 -3.1390618e-06)
(4.1993541e-05 -5.1961255e-06 4.1560352e-05)
(5.5108467e-05 1.2994421e-06 4.5008691e-05)
(-5.4912033e-06 -1.1733546e-06 -4.5664662e-06)
(4.9386844e-05 6.033048e-06 4.2189657e-05)
(4.3542024e-05 3.32918e-06 3.6368603e-05)
(2.2604808e-06 -5.2824283e-06 1.8835635e-06)
(6.3688428e-06 -1.5841382e-06 8.5522179e-06)
(4.7434771e-06 2.1364621e-07 4.2790986e-06)
(1.8854085e-05 4.9571465e-07 1.3745148e-05)
(7.1017049e-06 4.8854058e-07 3.9094724e-06)
(4.5369904e-05 -7.3562216e-06 4.1414217e-05)
(8.1166808e-06 -6.4815713e-06 -7.7026408e-07)
(6.0234802e-06 1.1602818e-06 7.0374856e-06)
(3.3777905e-05 1.5246672e-06 2.4675495e-05)
(5.3308131e-06 7.2716881e-07 3.9357272e-06)
(4.4600374e-05 1.1080846e-06 4.4280822e-05)
(4.4995043e-05 6.9196688e-07 4.5519053e-05)
(1.7333986e-05 2.4891368e-06 1.5887703e-05)
(5.1873225e-05 2.949981e-06 5.24752e-05)
(8.7307607e-06 -8.225031e-07 6.58312e-06)
(6.2442454e-05 1.5986902e-06 5.6505541e-05)
(3.8435671e-05 1.774652e-06 4.3931072e-05)
(5.7966103e-06 -2.4712157e-07 3.6700801e-06)
(1.0822724e-05 -3.6195786e-06 1.0417609e-05)
(1.203511e-05 -3.3125696e-06 1.0577466e-05)
(3.1553458e-05 1.3617527e-06 1.8122932e-05)
(3.9910328e-05 1.6349705e-06 4.1997862e-05)
(7.6581138e-06 -5.1400757e-07 4.5007089e-06)
(5.0094422e-05 6.54403e-07 3.7861522e-05)
(1.3749168e-05 1.7082398e-06 9.4630826e-06)
(-1.0498949e-05 -9.330983e-07 -6.912972e-06)
(5.2595926e-06 -6.7211121e-06 2.4461759e-07)
(5.4530717e-06 4.8723356e-06 3.6906428e-07)
(3.8082402e-05 3.4203618e-06 2.7228107e-05)
(0.00011947486 2.7484709e-06 0.00012369508)
(0.00011849911 -1.8023114e-06 0.00012362715)
(6.6948827e-06 -7.2789918e-06 5.2792153e-07)
(0.00011132908 3.2796461e-05 7.3644692e-05)
(4.5952393e-05 2.6867475e-06 3.7241149e-05)
(0.00011224539 2.7742712e-05 8.0198263e-05)
(5.1835641e-06 -5.8924319e-06 -1.509513e-08)
(3.2390282e-05 -7.3137239e-06 2.4328944e-05)
(0.00010817909 -2.7097241e-05 6.8112435e-05)
(0.00013286002 -3.2212203e-05 8.5618292e-05)
(3.5684963e-05 3.5334125e-06 2.8707192e-05)
(8.5405541e-07 4.3689544e-06 -4.5910179e-07)
(3.5869807e-06 5.4801688e-06 -3.2739182e-07)
(8.2693366e-05 6.9919367e-06 1.1226833e-05)
(3.8402928e-05 -4.8283313e-06 3.3138958e-05)
(4.2407952e-06 4.9160823e-06 6.3212881e-07)
(6.6225454e-05 1.1368906e-05 9.6671526e-06)
(-8.3234996e-06 -9.5021392e-07 -8.5540664e-06)
(5.360231e-05 1.5192811e-05 1.2841903e-05)
(0.00012070003 7.9723043e-06 3.9569345e-05)
(9.392801e-05 2.5510616e-06 2.1837188e-05)
(5.9791002e-06 5.3175555e-06 4.5379099e-07)
(0.00011697891 1.2981066e-05 4.1236243e-05)
(0.00011850773 2.1892585e-05 4.9984701e-05)
(5.6363278e-06 4.5813548e-06 -1.0098467e-06)
(-8.5128918e-06 4.2263882e-07 -7.2788227e-06)
(8.6053756e-05 3.2992719e-06 1.3961867e-05)
(-1.3493123e-06 -2.7971435e-06 -1.0507187e-06)
(0.00010375554 8.7627993e-06 2.9253297e-05)
(-2.4070458e-06 -2.8491269e-06 -1.9774667e-06)
(2.2193984e-06 -4.9262737e-06 6.701365e-07)
(-2.6257472e-06 -1.9222163e-06 -2.9643323e-06)
(2.5873857e-06 -3.1820923e-06 -7.6253973e-07)
(-7.8947548e-06 4.4511715e-07 -7.3655061e-06)
(7.2066829e-05 1.1995086e-06 1.6870132e-05)
(9.481021e-05 2.2068091e-06 1.6606643e-05)
(-9.4427235e-06 5.7758006e-07 -8.1972442e-06)
(9.9885552e-05 -3.7567055e-06 1.5700933e-05)
(-6.4947475e-06 -2.6939933e-07 -5.8824151e-06)
(-2.1899847e-06 -2.3999458e-06 -1.2910451e-06)
(1.2757943e-06 -6.1602797e-06 -3.1578993e-07)
(1.2591506e-06 -3.7251608e-06 -7.4608994e-07)
(-3.5178065e-06 -1.9838545e-06 -2.6600051e-06)
(-5.1835816e-06 -1.0018044e-06 -5.5123556e-06)
(4.1932459e-06 -5.6683566e-06 7.614957e-07)
(-6.8752384e-07 -3.2534257e-06 -6.4950546e-07)
(-6.6265984e-06 -9.1902402e-07 -6.0630796e-06)
(0.00011162625 -1.0663501e-05 3.5238707e-05)
(4.2341404e-06 -6.8414151e-06 1.7756675e-06)
(-4.1643502e-06 -1.586115e-06 -3.812972e-06)
(-5.715062e-06 -1.1810953e-06 -4.5781449e-06)
(-2.8686682e-06 -2.9165414e-06 -2.2164101e-06)
(3.2578154e-06 -4.2514163e-06 -2.0402697e-07)
(-8.7141221e-06 -7.3314484e-07 -7.877738e-06)
(7.0621549e-06 -7.5643465e-06 1.4930432e-06)
(2.8914636e-06 -6.6060708e-06 1.3369154e-06)
(0.00010058043 -9.8206607e-06 2.749816e-05)
(-7.3853707e-06 -9.2432301e-07 -7.1291148e-06)
(9.6426526e-05 2.5941226e-07 1.7061976e-05)
(-6.5601466e-06 -6.4880284e-07 -6.8106531e-06)
(-9.29012e-06 2.9288863e-07 -8.5723522e-06)
(-8.6199433e-06 1.4801712e-07 -8.5270633e-06)
(0.00010245974 -5.9807432e-06 2.1642419e-05)
(0.00011023789 -1.4034537e-05 3.7115866e-05)
(7.6195237e-06 -6.5925786e-06 3.9671443e-07)
(0.00011269331 -1.6982516e-05 4.4475356e-05)
(-1.278758e-05 -3.8837578e-07 -8.7398073e-06)
(7.9755337e-06 -8.5164918e-06 1.997837e-06)
(8.180612e-06 -8.9716673e-06 1.3283884e-06)
(1.8032202e-06 5.3609404e-06 1.8132234e-07)
(9.0887879e-06 -8.7317305e-06 1.5508782e-06)
(9.8262562e-06 -1.0646693e-05 4.0322729e-06)
(1.033573e-05 -9.5033964e-06 1.9518147e-06)
(1.1445814e-05 -7.4398321e-06 1.2487796e-06)
(-5.8589771e-06 -1.6700015e-06 -4.8466176e-06)
(1.6247585e-05 -1.3162658e-05 3.9255856e-06)
(1.1646935e-05 -9.5082159e-06 3.277108e-06)
(-9.5083867e-06 -1.440658e-06 -6.1636662e-06)
(7.1471075e-06 -6.7459709e-06 4.0905768e-08)
(1.7600429e-05 -1.008883e-05 2.0811433e-06)
(1.3704997e-05 -9.3034897e-06 1.6634257e-06)
(1.9270875e-05 -1.2501456e-05 3.7560908e-06)
(1.0213193e-05 -7.0230413e-06 7.8754759e-07)
(5.7024278e-06 6.6499469e-06 7.5003194e-07)
(1.9158949e-05 -1.0581503e-05 4.3085133e-06)
(8.0002096e-06 7.1591387e-06 6.5951845e-07)
(-1.1132283e-05 -4.092321e-07 -7.5468907e-06)
(-1.0401315e-05 5.9859595e-07 -8.7150519e-06)
(9.3343908e-06 7.721189e-06 1.5820551e-06)
(8.7447243e-06 5.9800655e-06 1.7256617e-06)
(8.3006924e-06 9.1608969e-06 2.6007782e-06)
(1.2946498e-05 9.5418009e-06 3.7534641e-06)
(1.3839302e-05 1.1619695e-05 4.5765456e-06)
(5.730566e-06 7.528444e-06 1.0782945e-06)
(1.3956487e-05 7.1140192e-06 2.9463759e-06)
(8.8628532e-06 8.4028673e-06 3.6765081e-06)
(1.6377475e-05 9.1603706e-06 4.2465182e-06)
(1.2292076e-05 7.8491053e-06 1.8853967e-06)
(1.8455223e-05 8.6289599e-06 2.3390342e-06)
(0.00011299533 7.4845957e-06 3.4104701e-05)
(9.6436655e-05 7.4347231e-06 2.7230126e-05)
(0.00010444709 4.3824921e-06 2.9620367e-05)
(0.00010566852 8.9895681e-06 3.8301787e-05)
(9.8845051e-05 7.6875161e-06 3.2547187e-05)
(0.00010691971 2.9405116e-06 2.6626956e-05)
(0.00010499874 -2.7103078e-06 2.8690758e-05)
(8.984153e-05 1.3410895e-06 2.3262048e-05)
(0.00010034016 4.920773e-06 3.4902379e-05)
(0.00010007275 -1.2218682e-07 2.7234838e-05)
(0.00011369895 6.8239066e-06 3.8275188e-05)
(9.6927587e-05 4.1471435e-06 2.8860033e-05)
(0.00012749852 1.5807158e-05 5.1825354e-05)
(1.0311539e-06 -6.6344943e-06 1.1950569e-06)
(-1.1204297e-05 -2.2422661e-08 -7.0706608e-06)
(4.9026506e-05 1.4912279e-05 1.0862998e-05)
(-3.0273099e-06 -3.3517091e-06 -2.3500591e-06)
(0.00012375659 8.1772871e-06 4.422653e-05)
(-1.0005021e-05 6.9144776e-07 -9.2233277e-06)
(9.1737205e-05 -5.9853483e-06 2.3228332e-05)
(9.2432777e-05 -6.6977869e-06 2.5640604e-05)
(-9.2369938e-06 -1.8945991e-07 -9.5522297e-06)
(0.00010509485 7.4410796e-07 2.4127895e-05)
(8.8552942e-05 -3.635991e-06 2.2890832e-05)
(8.8758008e-05 -3.9400927e-06 2.4228007e-05)
(9.442005e-05 -1.4885935e-06 2.8168983e-05)
(0.00010973569 6.7694297e-06 3.5513642e-05)
(0.00012092863 1.233926e-05 4.3243955e-05)
(5.853606e-06 -6.6979811e-06 1.0722252e-06)
(7.7822399e-05 -2.1476335e-06 2.267785e-05)
(9.2574216e-05 1.1022368e-06 3.0134655e-05)
(0.00012661489 2.1072923e-05 5.5515646e-05)
(-9.8341554e-06 -1.7628192e-07 -9.8469536e-06)
(-1.221835e-05 6.1955754e-07 -9.9676384e-06)
(0.00010145279 -3.8508783e-06 3.0422174e-05)
(-5.5684823e-06 -1.642923e-06 -5.8463717e-06)
(9.9163615e-05 -4.7728005e-06 2.6759795e-05)
(8.8227953e-05 1.1943257e-06 1.612062e-05)
(5.3926251e-05 1.344651e-06 5.0416704e-05)
(-1.1060973e-05 -4.4840423e-07 -9.6042349e-06)
(0.00010140431 -4.698558e-06 2.8947904e-05)
(0.00011746548 -9.8837072e-06 3.890266e-05)
(9.9218742e-05 -8.4590673e-06 3.0751135e-05)
(9.7147146e-05 -3.100741e-06 2.3271254e-05)
(9.492048e-05 -4.3907488e-06 2.5038657e-05)
(9.9221584e-05 1.4165775e-06 2.3799813e-05)
(0.00010792203 -4.7227585e-06 3.3103237e-05)
(-9.2139728e-06 -6.4569702e-07 -9.2036725e-06)
(7.8297774e-05 1.7740477e-08 2.5354792e-05)
(0.00010364786 6.3808328e-06 2.9302702e-05)
(0.00010492056 -8.9937216e-06 3.4599429e-05)
(9.7416279e-05 3.1180676e-06 2.2210257e-05)
(7.5527405e-05 5.2637402e-07 2.054327e-05)
(9.6483174e-05 -6.1077658e-07 2.2714257e-05)
(9.6273823e-05 5.8093457e-06 2.1136778e-05)
(8.9410364e-05 4.9501701e-06 2.6458639e-05)
(0.00011626849 -1.4671387e-05 4.4370191e-05)
(9.9128738e-05 1.4642023e-06 2.7929981e-05)
(4.7924033e-05 -6.2505681e-06 4.4189461e-05)
(9.8033016e-05 6.7395018e-06 1.9512613e-05)
(0.00011593493 -1.5826332e-05 4.1770676e-05)
(9.6759615e-05 1.0010535e-05 2.8292008e-05)
(8.8432185e-05 5.8756757e-06 2.0645656e-05)
(9.4851996e-05 -4.5785611e-06 3.1349229e-05)
(9.5023586e-05 1.3886262e-05 2.2122761e-05)
(2.0030511e-06 -3.9383318e-06 -1.3583982e-06)
(7.2189847e-06 -6.7205716e-06 3.1472225e-07)
(9.7379364e-05 -7.7471298e-07 2.1643436e-05)
(7.1084414e-05 -3.5601382e-06 5.6833456e-05)
(9.5182657e-05 -3.473091e-06 2.9200709e-05)
(0.00011218113 1.2344977e-05 4.4115531e-05)
(0.00010479922 -7.9570767e-06 3.654388e-05)
(8.5082016e-05 4.8690915e-06 2.0668784e-05)
(-2.6707588e-06 -2.7060809e-06 -4.2489674e-06)
(8.9919196e-05 9.3201176e-06 2.0196567e-05)
(9.2364256e-05 4.3379927e-06 2.5972282e-05)
(0.00011182394 1.4074307e-05 4.7496551e-05)
(7.2071518e-06 -9.6890004e-06 2.7227703e-06)
(9.158915e-05 1.2134556e-06 2.8355986e-05)
(8.5436164e-05 1.0468511e-05 2.034812e-05)
(7.7886708e-05 1.0318505e-05 1.9009756e-05)
(9.2653942e-05 5.2693991e-06 2.7046039e-05)
(8.5505731e-05 5.5430814e-06 2.2283364e-05)
(8.6376037e-05 7.2013561e-06 1.8387532e-05)
(4.8860943e-05 -2.3206766e-06 4.0721912e-05)
(-9.6466604e-06 5.4372913e-08 -1.1640974e-05)
(8.651186e-05 1.8218075e-05 2.2800091e-05)
(0.00010218528 -3.7052692e-06 3.6328224e-05)
(-1.2199088e-05 -9.4604296e-08 -9.4526287e-06)
(9.016718e-05 9.3205676e-06 2.1415252e-05)
(8.4638794e-05 1.5830438e-05 2.0183489e-05)
(8.1536881e-05 8.478748e-06 2.0897751e-05)
(9.3802551e-05 -3.9268997e-06 3.062523e-05)
(8.8400236e-05 3.0769588e-06 2.5347678e-05)
(7.1581735e-05 1.0785415e-05 1.9398172e-05)
(0.00010888217 -1.7172957e-05 4.5412841e-05)
(8.497944e-05 1.6861682e-05 2.4509656e-05)
(6.9023106e-05 9.6186385e-06 1.0479916e-05)
(8.1288901e-05 5.2173674e-06 2.3659846e-05)
(7.3085703e-05 1.0434501e-05 1.5782694e-05)
(0.00010010634 -8.0625477e-06 3.4912716e-05)
(6.9021669e-05 1.1294111e-05 1.6406812e-05)
(7.1717101e-05 1.5523444e-05 1.346761e-05)
(0.00011207494 -7.8215281e-06 4.1066095e-05)
(8.4248118e-05 1.9100982e-07 2.5603601e-05)
(6.8618097e-05 2.049986e-05 1.4497281e-05)
(8.4943297e-05 4.1129516e-08 3.0079109e-05)
(0.00010812293 -1.0085329e-05 3.958106e-05)
(8.2930516e-05 -7.5809878e-06 3.2230755e-05)
(7.4926219e-05 1.4945698e-05 1.8893823e-05)
(0.0001101148 7.0128872e-06 4.017071e-05)
(7.8593913e-05 1.3656682e-05 1.8668991e-05)
(7.5533633e-05 1.4223566e-05 1.6777487e-05)
(-1.1826729e-05 8.694481e-07 -1.1062003e-05)
(4.9450197e-05 9.9298908e-06 1.2299121e-05)
(-6.64569e-06 -2.2213818e-06 -6.658365e-06)
(-1.2848217e-05 3.0965929e-07 -1.1017046e-05)
(0.00012070272 -1.4177953e-05 4.9753424e-05)
(7.3646353e-05 2.2295759e-05 1.9530886e-05)
(7.3194763e-05 1.5346651e-05 1.7106053e-05)
(-1.1543984e-05 2.277805e-07 -1.1335651e-05)
(-1.1768712e-05 -1.318206e-06 -8.1732537e-06)
(1.1016445e-06 -7.5146182e-06 -5.704334e-07)
(0.00011646591 6.9920987e-06 4.5178334e-05)
(6.2811565e-06 -7.9230696e-06 1.3086269e-06)
(3.7406249e-06 -6.8222588e-06 4.0063769e-07)
(1.2843119e-06 -4.9002797e-06 -2.0256857e-06)
(-4.0849205e-06 -3.6788277e-06 -2.606773e-06)
(7.4847204e-05 7.1878765e-06 1.6967522e-05)
(-1.7043271e-06 -5.5512305e-06 -1.1123929e-06)
(5.9156392e-06 -6.1578143e-06 -1.0739443e-06)
(-1.0353105e-05 -3.3476073e-07 -8.4676383e-06)
(1.6055304e-06 -7.2418634e-06 3.8904229e-07)
(2.1084052e-05 -1.0461259e-05 1.2955313e-06)
(-5.891911e-06 -3.2293845e-06 -4.0831105e-06)
(-1.7198125e-06 -3.2543682e-06 -3.2597251e-06)
(7.1496033e-05 9.3593572e-06 1.5144087e-05)
(1.0034648e-05 -9.4038446e-06 2.5268211e-06)
(2.1552151e-05 -1.0854126e-05 2.885092e-06)
(2.0626983e-05 9.5541896e-06 4.0614057e-06)