/*--------------------------------*- C++ -*----------------------------------*\
  =========                 |
  \\      /  F ield         | OpenFOAM: The Open Source CFD Toolbox
   \\    /   O peration     | Website:  https://openfoam.org
    \\  /    A nd           | Version:  11
     \\/     M anipulation  |
\*---------------------------------------------------------------------------*/
FoamFile
{
    format      ascii;
    class       volVectorField;
    location    "10000";
    object      wallShearStress;
}
// * * * * * * * * * * * * * * * * * * * * * * * * * * * * * * * * * * * * * //

dimensions      [0 2 -2 0 0 0 0];

internalField   uniform (0 0 0);

boundaryField
{
    wall-fluid_domain
    {
        type            calculated;
        value           nonuniform List<vector> 
42113
(
(6.6606705e-06 2.8263218e-05 4.4152314e-05)
(-2.0052595e-05 3.2234577e-05 3.2169659e-05)
(1.3011871e-05 3.54463e-05 2.7570263e-05)
(-6.0959996e-05 -8.7826236e-06 8.0004445e-05)
(8.9969739e-06 3.279161e-05 2.5634938e-05)
(1.938854e-06 3.6598266e-05 2.7911333e-05)
(1.0149632e-05 3.3273313e-05 3.142406e-05)
(-5.6508118e-05 -1.8263786e-05 7.1020669e-05)
(-2.6958742e-05 3.0239218e-05 3.6340035e-05)
(1.29791e-05 4.3100537e-05 3.2296089e-05)
(1.1244896e-05 3.2822816e-05 3.2895344e-05)
(1.8402528e-05 3.6056485e-05 3.9566291e-05)
(-3.5499086e-05 -9.8747413e-06 2.4054966e-05)
(3.815449e-06 3.3134612e-05 2.0903985e-05)
(1.2551777e-05 3.5586812e-05 3.756898e-05)
(-8.3292402e-07 3.8948181e-05 2.854154e-05)
(-5.9492602e-06 1.9572533e-05 2.39757e-05)
(-1.2722356e-05 3.6176632e-05 2.9830824e-05)
(8.3593591e-06 3.4142301e-05 2.5450692e-05)
(1.847647e-07 3.6622294e-05 2.728494e-05)
(-0.00012008978 5.0043262e-06 0.00014663375)
(-0.00011901526 -6.8630741e-06 0.00018611863)
(-0.00018436071 -2.0801083e-05 0.00017027086)
(-3.739116e-05 2.777316e-05 6.9291674e-05)
(-2.0875044e-05 3.033439e-05 4.5736061e-05)
(-5.8541281e-05 -5.4067857e-06 7.2044289e-05)
(7.1396541e-06 3.1582144e-05 1.967175e-05)
(-0.00011776526 -5.8687217e-06 0.00018630876)
(2.5035089e-06 3.828671e-05 3.2905398e-05)
(-5.0091707e-06 3.1160168e-05 1.9928903e-05)
(1.0037169e-05 3.4152326e-05 2.1714379e-05)
(-3.6771954e-05 2.7946527e-05 4.3988371e-05)
(-0.00012166408 -6.3123683e-06 0.00019399508)
(-4.9252099e-05 1.9176163e-05 0.00010227048)
(-2.8296994e-05 2.6387062e-05 4.0342894e-05)
(-3.8258159e-05 2.5978417e-05 6.120523e-05)
(-0.00015538315 -2.1309248e-05 0.00013985739)
(-5.0734374e-05 -8.0377583e-06 6.6686828e-05)
(-3.4063577e-06 2.3270525e-05 2.3029558e-05)
(6.8406882e-06 4.0282894e-05 2.434613e-05)
(-2.5610302e-06 3.4628624e-05 1.8208386e-05)
(-0.00011988092 1.5402601e-06 0.00018851339)
(-1.9280626e-05 2.914601e-05 2.6258013e-05)
(-0.00017624563 -1.1573049e-05 0.00016378886)
(2.1930411e-05 3.5610949e-05 3.4949968e-05)
(1.2652568e-05 3.1661098e-05 1.953866e-05)
(-8.0620214e-07 3.8090346e-05 2.3269869e-05)
(2.2296556e-06 3.7392788e-05 2.0766468e-05)
(-1.1057463e-05 3.064326e-05 2.0863908e-05)
(-9.1033082e-07 3.3681452e-05 2.4092037e-05)
(-0.00018590967 -2.0041723e-05 0.00017268463)
(8.1286466e-06 4.0436094e-05 1.5721731e-05)
(-3.7306956e-05 2.4585578e-05 5.2485694e-05)
(-4.902961e-05 -2.2591592e-05 4.3065065e-05)
(-0.00016110195 1.0746034e-05 0.00024936648)
(-8.0250841e-06 2.1505036e-05 1.889147e-05)
(-5.3039765e-05 -1.7919286e-05 0.0001049802)
(-0.00013228647 -7.3840006e-06 0.00021309028)
(-3.683188e-06 3.5662306e-05 2.0935972e-05)
(-9.0371246e-06 3.0972164e-05 1.8286206e-05)
(-0.00013246165 -9.2553943e-06 0.00017324159)
(-3.6692157e-05 2.778911e-05 5.6756191e-05)
(1.4644845e-05 3.9754392e-05 1.9813035e-05)
(-2.5664525e-05 3.2331062e-05 3.1679657e-05)
(-4.5611011e-06 2.5140754e-05 2.2512213e-05)
(-0.00015631996 9.0403679e-07 0.00021183337)
(-0.00016916263 -1.6652283e-06 0.00027843679)
(1.5293867e-06 4.2242125e-05 2.6166307e-05)
(-3.0952486e-05 3.5086861e-05 4.225847e-05)
(-0.00012202614 1.4788794e-06 0.00019035841)
(-0.00011474245 -3.748154e-06 0.00017754693)
(-0.00013158268 -4.6717526e-06 0.00017302547)
(-6.1419358e-06 3.5024416e-05 2.5065691e-05)
(-1.4931487e-05 2.9885178e-05 3.0005234e-05)
(-1.2101356e-05 2.5427557e-05 1.7543187e-05)
(-0.00015771814 -4.9253564e-06 0.00021206341)
(-0.00013897851 -6.4440803e-06 0.00018466466)
(5.1377719e-05 -7.3936462e-07 -7.889826e-05)
(-1.8352795e-05 3.046695e-05 3.1044802e-05)
(-0.00017002251 -1.6210917e-05 0.0001543607)
(-2.3100517e-05 3.052185e-05 3.5406343e-05)
(-7.9083173e-05 -2.9173973e-05 8.933995e-05)
(-0.0001581833 2.2157176e-07 0.00022997107)
(-2.1647502e-06 3.7736325e-05 2.7535898e-05)
(3.8794528e-05 -1.0895528e-05 -3.8673363e-05)
(-6.5701003e-05 -2.3807921e-05 8.1911671e-05)
(-7.4589384e-05 6.5035109e-06 0.00013011552)
(2.7521649e-05 -3.5393924e-05 -3.2657452e-05)
(-3.6726603e-06 3.7250145e-05 2.7459887e-05)
(-0.00012088686 -5.2497186e-06 0.00015950638)
(-6.4547287e-05 -1.5742525e-05 8.1360781e-05)
(-6.1788553e-05 -1.3084974e-05 8.2734161e-05)
(-0.00018236883 -3.0844044e-05 0.00016874505)
(2.1244119e-05 3.5475539e-05 2.8260633e-05)
(-6.1104186e-05 -1.3463608e-05 7.8860534e-05)
(-4.0104587e-05 2.5233599e-05 6.5370469e-05)
(-6.6110878e-05 -2.0428782e-05 8.5697635e-05)
(-0.00022787011 5.3186485e-06 0.00026748732)
(-2.6099648e-06 3.3354824e-05 4.3715521e-05)
(-3.4245534e-05 2.2281734e-05 4.5303671e-05)
(-0.00015400198 8.2378429e-06 0.00027471085)
(-0.00016539003 4.7292663e-06 0.00024528947)
(-1.3180018e-05 2.5592251e-05 1.9485873e-05)
(3.0737905e-06 4.2172088e-05 3.1064409e-05)
(-0.00015091372 -2.346948e-05 0.00014628764)
(-0.00018163529 1.0924731e-05 0.00027619398)
(-5.2065546e-05 -1.4907297e-05 6.0328748e-05)
(-4.876304e-05 -2.9438498e-06 7.3928895e-05)
(-1.5824862e-05 3.0556802e-05 3.8607354e-05)
(-6.1484255e-06 3.5689241e-05 2.3460834e-05)
(-0.00019447344 5.2625965e-06 0.0003248548)
(-0.00016647455 1.6015158e-05 0.00023770087)
(6.5115706e-05 6.3915779e-06 -0.0001042681)
(-5.0261832e-05 -2.0642459e-06 7.5643177e-05)
(-0.00019493047 -9.808751e-06 0.00032791371)
(-5.6675105e-05 -3.9557145e-06 9.0339948e-05)
(-6.1528171e-05 4.3560394e-07 8.8009006e-05)
(-5.9803004e-05 -5.7175492e-06 9.1549205e-05)
(-0.00017189555 -8.78792e-06 0.0001575321)
(-0.00019789594 -8.8777902e-06 0.00033404907)
(-1.6582055e-05 3.2047369e-05 4.1584498e-05)
(-0.00011346913 9.6181816e-06 0.00014453157)
(1.4311919e-05 3.3879113e-05 3.7009589e-05)
(-4.9266742e-05 -1.4223841e-06 7.4479444e-05)
(-5.2565844e-05 -1.5258153e-06 8.6572903e-05)
(-1.5006167e-05 2.7154198e-05 2.1489327e-05)
(-0.0001716624 9.9664342e-06 0.00025914115)
(-0.00015895881 -3.0345513e-06 0.00027230101)
(-0.00016632787 -2.9512841e-06 0.00028570004)
(-5.9855295e-05 -1.679451e-06 8.4283959e-05)
(-5.0651921e-05 -4.9335445e-06 7.5755759e-05)
(-3.6312885e-05 2.5118816e-05 5.8674644e-05)
(-3.7642978e-05 -1.9312029e-06 6.1044969e-05)
(-4.0305348e-05 -2.7418373e-06 6.9917109e-05)
(-7.2529542e-05 -1.9092589e-05 7.2374661e-05)
(-0.00016093628 -1.078453e-05 0.00025915908)
(-6.8402069e-05 8.1474486e-06 0.00013422039)
(-0.00017875593 -7.5055823e-06 0.0002870478)
(-3.6252239e-05 2.3140692e-05 5.2715894e-05)
(-0.00015734454 1.4096513e-05 0.00027753892)
(-0.00013510316 1.6963428e-06 0.00015881243)
(-4.8237223e-05 2.6786536e-05 6.3454821e-05)
(-0.00016056648 -3.0190595e-07 0.00028689923)
(1.9084641e-05 3.5241743e-05 3.0258262e-05)
(-6.6489606e-05 -2.6757631e-05 9.5076521e-05)
(-0.00016195533 2.0546613e-06 0.00022902713)
(-4.0130251e-05 1.949949e-05 9.6636838e-05)
(-5.4168028e-05 -1.1852903e-05 7.278992e-05)
(6.3139872e-05 3.0571374e-05 -0.00010331757)
(-0.00017479369 1.6100979e-05 0.00027770228)
(-9.8844141e-05 -7.6721274e-06 0.00011204419)
(6.6250823e-05 1.9255306e-05 -9.0917519e-05)
(-0.00018763835 1.3071955e-05 0.00031397408)
(-0.00012056528 -1.970576e-06 0.00018483379)
(-0.00016729947 2.082145e-05 0.00027963934)
(-0.00023053939 2.9223395e-06 0.00026047937)
(-0.00016374946 1.0562998e-06 0.00022878029)
(-0.00014569714 -3.0027477e-06 0.00019365603)
(-0.00017521528 4.4221087e-06 0.00029878279)
(-0.00016518304 -2.3909688e-06 0.00022744064)
(-5.2432866e-05 -3.4762469e-06 7.5236608e-05)
(-0.00014235345 -8.3163166e-07 0.00019139888)
(-0.00016265394 -4.0468216e-06 0.00023766639)
(-0.00013992655 -8.4754841e-06 0.00019114761)
(-0.00016126161 2.8943219e-06 0.00022558445)
(-0.00012339434 5.0307232e-07 0.00016902512)
(-0.00014090861 9.6356737e-06 0.00019744746)
(-5.7061955e-05 -1.1794423e-05 7.6604465e-05)
(-0.00017772361 -5.4591796e-07 0.00022987174)
(-0.0001375189 7.3858679e-06 0.00018564014)
(-0.00014518982 -1.1081458e-05 0.00019442585)
(-0.00013204527 1.0544387e-05 0.00018268072)
(-0.00016403312 1.1636166e-06 0.00023353107)
(-6.0066803e-05 -1.1387521e-05 6.9489083e-05)
(-0.0001345914 -4.370229e-06 0.00018428717)
(-0.00014822399 -1.2519869e-06 0.00020367215)
(-0.00016436994 9.7190211e-07 0.00023539186)
(-0.00017047903 3.0179717e-06 0.00024193451)
(-2.9549557e-05 -5.1777333e-05 6.8908036e-06)
(-0.00013015924 6.0864208e-06 0.0001812529)
(-0.00013839951 1.311874e-05 0.00017451907)
(-5.7017904e-05 -1.7263541e-05 7.312836e-05)
(-0.00014327741 6.2588689e-06 0.00024320133)
(-0.00017168948 3.2576652e-07 0.00024335726)
(-0.00015662636 4.8282966e-06 0.00021898349)
(1.8053366e-05 3.0776462e-05 3.316322e-05)
(-3.7185978e-05 3.0771458e-05 5.0386047e-05)
(-0.00014872182 -2.4727755e-06 0.00020572975)
(-2.875641e-05 2.7553244e-05 4.252468e-05)
(-0.00011931404 -5.5437867e-06 0.00015971748)
(-4.1112162e-05 2.4788555e-05 6.3487455e-05)
(-0.00015661502 1.3005405e-06 0.00021595834)
(-5.5520878e-05 -8.0517368e-06 6.7423151e-05)
(-2.660705e-05 2.9087961e-05 3.7108302e-05)
(-0.0001661048 -8.4689556e-07 0.00023615189)
(-0.00012657695 3.6616713e-07 0.00018778299)
(-0.00012677346 -4.3729079e-07 0.00017417756)
(-5.9820485e-05 -6.4360261e-06 8.3164357e-05)
(-0.00016415043 1.5324061e-05 0.00025940656)
(-0.00013814292 1.8272821e-06 0.00019372388)
(-1.9045469e-05 3.4969796e-05 3.7938654e-05)
(-0.00016957125 6.3616203e-06 0.0002448663)
(-0.00016206719 1.2055861e-06 0.00023302526)
(-0.00019781504 -5.7323716e-06 0.00033679089)
(-0.00018324371 -3.1923953e-06 0.00033349856)
(-0.0001286713 -2.3190839e-07 0.00017237365)
(-0.00016122173 -2.3034553e-05 0.00013785086)
(-5.4591304e-05 -1.1450875e-05 7.2762989e-05)
(3.628464e-05 -5.540546e-05 -5.0970971e-05)
(-5.3038582e-05 -2.1812121e-05 7.2463094e-05)
(-0.00020224074 1.8159209e-05 0.0003346222)
(-0.0001508056 -1.1137864e-05 0.00025216955)
(-0.00014118514 6.0584085e-06 0.00025615144)
(-4.4592298e-05 2.7995771e-05 7.0197577e-05)
(-4.385766e-05 2.7584668e-05 6.5010807e-05)
(-0.00015300851 1.034441e-05 0.0002246317)
(1.2916276e-05 -4.2705994e-05 -2.7642057e-05)
(-4.6501754e-05 2.6837201e-05 6.7363438e-05)
(-0.00020351353 -3.9813707e-06 0.00029360482)
(-2.1914855e-05 3.7494088e-05 3.4121886e-05)
(-3.5957948e-05 2.0475312e-05 4.3494117e-05)
(-0.00023738125 1.3003403e-05 0.00042255902)
(2.3074521e-05 3.5845196e-05 -5.6093511e-05)
(-5.6836893e-05 -1.1354333e-05 7.4348736e-05)
(-0.00017217399 5.147227e-06 0.00029368427)
(1.8026187e-05 3.4010461e-05 1.7260638e-05)
(-0.0001975713 -4.1398397e-06 0.00028754299)
(-4.2066569e-05 3.0201206e-05 6.0304528e-05)
(2.2824578e-05 3.6439543e-05 2.2790051e-05)
(-5.340342e-05 -1.2435546e-05 6.832705e-05)
(2.3155316e-05 3.2610372e-05 2.0754426e-05)
(-0.00013673481 -7.4064737e-06 0.00021358459)
(-0.00013292233 -5.6187783e-06 0.00020033972)
(-4.7410023e-05 -1.6635537e-05 5.7542885e-05)
(-0.0001369743 -7.3823635e-06 0.00020601265)
(1.8867252e-05 4.5873381e-05 6.5408533e-05)
(-0.00014052171 -7.8223529e-06 0.00021293504)
(-5.1972353e-05 -1.9547924e-05 6.5101582e-05)
(-3.2755438e-05 -2.058855e-05 2.0990709e-05)
(-0.00018646098 1.245803e-06 0.00031293408)
(-6.0897709e-05 -1.4816426e-05 8.9247069e-05)
(-0.00020300507 1.4963357e-05 0.00034031792)
(-0.00014311717 1.1290216e-05 0.00016800268)
(-0.00016621559 -8.4594653e-06 0.00025859556)
(-2.7114082e-05 -1.4132547e-05 1.7512018e-05)
(-4.1576982e-05 2.9300218e-05 6.5225901e-05)
(-6.1060344e-05 -1.2718927e-05 8.5667057e-05)
(-5.1757789e-05 -1.1203332e-05 7.3203257e-05)
(-4.0700332e-05 2.3028829e-05 4.9903632e-05)
(-0.00015046466 1.0097571e-05 0.00022443223)
(-4.3320697e-05 3.5018944e-05 6.3936094e-05)
(-5.0085399e-05 -8.4673216e-06 6.5564373e-05)
(3.6526698e-05 7.3744943e-05 -7.7423303e-05)
(-5.4078594e-05 -9.5177175e-06 6.9977191e-05)
(-0.00016398384 -3.9504516e-06 0.0002759955)
(-5.6507916e-05 -1.1346352e-05 7.6521524e-05)
(-3.4549212e-05 2.0179297e-05 4.0727002e-05)
(-5.2803631e-05 -1.109258e-05 7.6818718e-05)
(-0.00010760691 4.4818521e-06 0.00019249605)
(-5.2268559e-05 -1.2650406e-05 7.0641447e-05)
(-0.00016539595 -1.9196358e-05 0.00015538024)
(-2.9102498e-05 2.6905694e-05 3.6580261e-05)
(-0.00012010371 5.59204e-06 0.0002231881)
(-5.5257212e-05 -2.3208185e-05 7.5335305e-05)
(-3.1140976e-05 3.5792187e-05 3.7208232e-05)
(-0.00014532591 1.2355781e-05 0.0002608611)
(1.4852914e-05 2.6284613e-05 1.641471e-05)
(-4.8170384e-05 -8.8562488e-06 6.3146159e-05)
(5.057868e-05 1.4359596e-05 -6.2158339e-05)
(-0.00024650663 1.6010188e-05 0.00042948915)
(-5.5999276e-05 -1.3127698e-05 7.014966e-05)
(7.0882301e-06 2.0140124e-05 6.3543823e-06)
(-0.00017637842 6.9749752e-06 0.00030609302)
(5.9851054e-05 -1.1652114e-05 -7.63618e-05)
(-1.9967733e-05 2.2974433e-05 1.8674745e-05)
(3.3226027e-05 -3.7122164e-05 -5.3583792e-05)
(-0.00024264802 1.7109221e-05 0.00026378771)
(-3.8342302e-05 2.6077297e-05 5.1826903e-05)
(-0.00024970191 1.518717e-05 0.00025839333)
(-5.3841475e-05 -7.0373216e-06 7.5035593e-05)
(-0.00021208838 -2.0978743e-05 0.00025835851)
(-0.00016787386 -1.5941306e-05 0.00020931311)
(-3.8393924e-05 2.2018679e-05 5.2049771e-05)
(-9.4721064e-06 -1.0704151e-05 1.2677207e-05)
(8.5115258e-06 1.4342984e-05 9.2855169e-06)
(-4.8979527e-05 -2.0124695e-05 6.6915076e-05)
(-1.0659073e-05 2.8538048e-05 2.4489278e-05)
(-9.1889769e-06 -8.5952828e-06 1.4910351e-05)
(-0.00019900247 -6.4453015e-06 0.0003406483)
(-5.8583328e-05 -2.4398768e-05 7.1716663e-05)
(-4.5711744e-05 -2.1497229e-05 7.1526257e-05)
(-5.3208125e-05 -2.1853654e-05 6.8936485e-05)
(-4.9582323e-05 -2.5687332e-05 6.2545151e-05)
(-5.071292e-05 -1.7504371e-05 5.6293731e-05)
(-2.0397299e-05 2.8348441e-05 8.0005379e-05)
(-4.695483e-05 -1.5990015e-05 6.3762884e-05)
(-6.0416609e-05 -2.8104367e-05 7.1488005e-05)
(-0.0001987886 -2.1090728e-05 0.00017823089)
(-0.00013977552 8.8345025e-06 0.00021475951)
(-3.7380741e-05 2.5471447e-05 5.0112937e-05)
(-1.7934007e-05 -2.5003158e-05 1.1087211e-05)
(-1.3753243e-05 2.9558491e-05 6.0808372e-05)
(-4.2893348e-05 2.0337786e-05 5.1932376e-05)
(-0.00019070008 -1.5556813e-05 0.00017583226)
(-0.00023825753 1.8433392e-05 0.00040601358)
(-6.2478281e-06 -3.9425284e-05 -6.3554741e-06)
(-3.6178631e-05 2.4278869e-05 3.9865041e-05)
(-4.274438e-05 2.6301626e-05 4.6737969e-05)
(-0.00017661115 -5.4382478e-06 0.00027015288)
(-7.9234417e-06 -3.9468337e-05 -3.867875e-07)
(-3.0810842e-05 2.6553186e-05 4.1342986e-05)
(-0.00015364962 -9.6572407e-06 0.00023544354)
(-9.9840592e-06 -4.814918e-05 3.3824839e-06)
(-2.0880452e-05 -3.1915472e-05 1.0314179e-05)
(-2.7137142e-05 2.228211e-05 4.2200825e-05)
(-0.00015818324 -2.4501057e-05 0.00013499234)
(-2.7546962e-05 2.4036393e-05 3.5678711e-05)
(-0.00015783311 -3.2194535e-05 0.00013611401)
(-2.5098528e-05 3.8483841e-05 3.7566712e-05)
(-0.00018244815 -1.5481821e-05 0.00029164189)
(-2.6056072e-05 3.1010129e-05 3.989243e-05)
(-4.3850357e-05 2.2504797e-05 5.7085573e-05)
(-2.562467e-05 2.8734964e-05 3.9745522e-05)
(-4.0539964e-05 2.5482766e-05 5.0198682e-05)
(-3.378244e-05 2.7679393e-05 4.4494596e-05)
(-0.00012520464 -8.2861479e-06 0.00017282089)
(-4.4107618e-05 2.484039e-05 6.4511518e-05)
(-3.1614125e-05 3.3983927e-05 4.3959937e-05)
(-3.8943055e-05 2.7039664e-05 4.3554624e-05)
(-3.1169634e-05 2.3060099e-05 3.0195234e-05)
(-3.7927559e-05 2.100113e-05 4.2811426e-05)
(-0.00016405155 1.2055171e-05 0.00028567087)
(-0.00015255367 -7.996274e-06 0.00025975939)
(-3.639516e-05 2.5971768e-05 4.5291859e-05)
(-0.00019653337 1.1617615e-05 0.00033066222)
(-3.6927296e-05 2.5223753e-05 4.1794588e-05)
(-2.7501907e-05 2.5295416e-05 3.2978597e-05)
(-2.0478231e-05 2.7360883e-05 2.0160532e-05)
(-3.8447467e-05 2.2477112e-05 3.8802515e-05)
(-3.878559e-05 2.851152e-05 4.3489814e-05)
(-3.7510507e-05 2.1204808e-05 3.6236499e-05)
(-0.00017376678 -9.737022e-06 0.00029251631)
(-3.2791008e-05 2.5219499e-05 2.5788502e-05)
(-9.4546917e-05 -8.2851165e-06 0.00010222901)
(-4.1872844e-05 2.3909471e-05 5.9177333e-05)
(-5.7476354e-05 -4.2586266e-06 8.0405728e-05)
(-3.5901448e-05 2.5651878e-05 3.631896e-05)
(-3.055538e-05 3.5844665e-05 4.6270044e-05)
(-2.3090406e-05 3.370434e-05 3.2316976e-05)
(-3.1004103e-05 2.6298641e-05 2.7176837e-05)
(-3.7714052e-05 2.4635976e-05 3.5838224e-05)
(-3.1095902e-05 3.0132003e-05 3.1793908e-05)
(-1.2343485e-05 3.1634781e-05 2.3657163e-05)
(-1.8807835e-06 3.1820964e-05 6.9553672e-05)
(-3.3527681e-05 2.7836663e-05 3.7283029e-05)
(-3.8011485e-05 2.5273377e-05 3.5593683e-05)
(-3.4176853e-05 2.5388581e-05 4.1522227e-05)
(-2.9152508e-05 2.6124838e-05 2.1547506e-05)
(-3.6214347e-05 -1.6638189e-05 2.3437889e-05)
(-3.5760819e-05 2.2411176e-05 4.1854098e-05)
(-3.9282573e-05 2.3872116e-05 3.9717521e-05)
(-0.00020614603 8.3603866e-06 0.00033806538)
(-3.2847012e-05 2.9905761e-05 3.8919195e-05)
(-4.1140824e-05 2.9117529e-05 4.1121937e-05)
(-4.226651e-05 2.3999665e-05 4.5339606e-05)
(-2.9853789e-05 2.6222922e-05 8.7400258e-05)
(-2.1863177e-05 3.590269e-05 3.7665017e-05)
(-2.9961007e-05 2.7255744e-05 2.5659979e-05)
(-9.4324342e-05 8.5663169e-06 0.00014589753)
(-0.00017873318 -1.1690133e-05 0.00027976593)
(-3.8554021e-05 2.5593096e-05 4.6191328e-05)
(-3.959666e-05 2.0562008e-05 5.2825001e-05)
(-3.6429746e-05 2.0052223e-05 4.3943732e-05)
(-4.2910936e-05 1.9424417e-05 4.5600432e-05)
(-4.2115985e-05 2.6422235e-05 5.0962437e-05)
(-3.7332754e-05 2.3591421e-05 4.9221378e-05)
(3.9030965e-05 -5.4383488e-05 -6.2901794e-05)
(-4.299917e-05 2.2565146e-05 5.7212636e-05)
(-4.0021201e-05 2.239791e-05 4.9299527e-05)
(-4.3996699e-05 2.739096e-05 6.7864077e-05)
(-4.876299e-05 2.4519488e-05 5.208547e-05)
(-4.578533e-05 3.2392252e-05 5.0397554e-05)
(-3.3873753e-05 3.7243628e-05 4.4761353e-05)
(-2.8390123e-05 3.0584168e-05 3.6145874e-05)
(-3.7676317e-05 2.3632825e-05 4.1844744e-05)
(-4.4943944e-05 2.5327677e-05 4.7110481e-05)
(-5.3958332e-05 2.6256671e-05 5.9637084e-05)
(-4.0548015e-05 1.8128569e-05 4.5494177e-05)
(-3.1318096e-05 2.9709961e-05 3.1195577e-05)
(-5.5035318e-05 3.0393087e-05 6.4484906e-05)
(-2.0335592e-05 3.2005777e-05 2.6962874e-05)
(-5.1806506e-05 2.107838e-05 5.4638399e-05)
(-4.6269501e-05 2.315769e-05 5.0708869e-05)
(-4.9019131e-05 2.6202296e-05 5.5321593e-05)
(-2.6460315e-05 2.859347e-05 2.1442534e-05)
(-4.7189492e-05 3.7404365e-05 5.5971999e-05)
(7.0716332e-05 4.8715337e-05 -9.9466836e-05)
(-4.876287e-05 2.2758277e-05 5.5802761e-05)
(-5.8351636e-05 -1.9630703e-07 7.4986268e-05)
(-0.0001688677 1.1972437e-05 0.00029411103)
(-4.1388695e-05 3.1488738e-05 4.3685211e-05)
(-3.2201625e-05 3.1785024e-05 3.9989917e-05)
(-9.2945973e-05 -7.0961166e-05 6.0276229e-05)
(-8.3283819e-05 -8.2391165e-05 6.0215731e-05)
(-5.5254035e-05 -5.6828699e-06 7.914964e-05)
(-4.976424e-05 1.9858997e-05 5.1380629e-05)
(-2.1335109e-05 2.7270086e-05 2.0487618e-05)
(-2.75977e-05 3.3471567e-05 3.2691893e-05)
(-4.7175892e-05 1.9701917e-05 5.2168752e-05)
(-1.8743276e-05 3.3033387e-05 3.0461309e-05)
(-3.6158274e-05 1.7575791e-05 4.2003274e-05)
(-5.2418636e-05 1.8468946e-05 5.5846695e-05)
(-5.144421e-05 2.1499574e-05 5.2978235e-05)
(-5.4797424e-05 1.9258905e-05 6.3271808e-05)
(-5.2320626e-05 2.1541253e-05 6.0235397e-05)
(-0.00014280025 -2.9761181e-06 0.00019678045)
(-5.3468288e-05 2.4464221e-05 5.2432644e-05)
(-0.00019385915 -1.6729628e-05 0.00031866691)
(-6.0525005e-05 2.4548768e-05 6.4595149e-05)
(-3.3193596e-05 3.7095853e-05 4.4839341e-05)
(-4.9831157e-05 2.9370091e-05 5.1216735e-05)
(-5.6354871e-05 1.9803093e-05 5.8552536e-05)
(1.2835468e-06 -3.1469107e-05 -2.0338953e-05)
(-4.3274891e-05 2.4612359e-05 5.3766699e-05)
(-2.2920418e-05 3.4918068e-05 2.6315328e-05)
(-7.98265e-05 -7.3001932e-05 4.6436823e-05)
(-4.7751952e-05 2.2936546e-05 5.1859276e-05)
(-5.4416128e-05 -1.5575225e-05 7.2971356e-05)
(-5.1171381e-05 -1.3925187e-05 7.879884e-05)
(-6.0849904e-05 1.7962995e-05 6.8649691e-05)
(-6.1572477e-05 2.7575696e-05 6.4738554e-05)
(-4.3424601e-05 2.1322901e-05 5.6851403e-05)
(-6.2213816e-05 2.078909e-05 6.2256721e-05)
(-5.3732305e-05 -1.0751277e-05 7.7838249e-05)
(-6.3492322e-05 2.260996e-05 6.8557607e-05)
(-0.00016178498 -8.5600216e-06 0.00027117403)
(-0.00013384076 1.3403707e-06 0.00023694251)
(-4.5657066e-05 1.9064637e-05 5.0903862e-05)
(-0.00017192542 -1.4435646e-05 0.00021980286)
(-5.4706512e-05 -2.771338e-05 6.6432349e-05)
(-0.00015047461 -9.3366077e-06 0.00023077258)
(-4.524127e-05 -2.5050843e-05 6.3726765e-05)
(-6.5762833e-05 2.7104644e-05 6.3860473e-05)
(-0.00015403839 -8.4499685e-06 0.00023285804)
(-4.8119578e-05 2.4209163e-05 5.9359992e-05)
(-0.00013032037 -1.1982709e-05 0.00020273717)
(-5.5380738e-05 1.6009596e-05 6.3239119e-05)
(-6.4301215e-05 2.4859507e-05 7.146362e-05)
(-0.00016720363 -1.1120178e-05 0.00029183624)
(2.9274966e-05 -5.1193016e-05 -6.3407496e-05)
(-0.00011024886 -5.0149978e-07 0.00017381974)
(-4.6986932e-05 2.1254526e-05 4.9295832e-05)
(-6.7066866e-05 2.6955104e-05 7.9343974e-05)
(-4.4424673e-05 2.0958867e-05 5.8887556e-05)
(-0.00010988188 -4.7402825e-06 0.00017427348)
(-4.6317088e-05 1.8036666e-05 5.5156878e-05)
(-7.2103124e-05 2.4473727e-05 7.9501522e-05)
(-4.8412458e-05 1.5566117e-05 5.0765157e-05)
(-0.00013336798 -1.0138281e-05 0.00019738759)
(-6.4637122e-05 1.5784347e-05 7.2288249e-05)
(7.9616441e-06 -3.4051024e-05 -2.2193194e-05)
(-6.3655039e-05 1.9518053e-05 7.5572248e-05)
(-0.0002171007 2.558342e-05 0.0003696626)
(-0.00019428778 -3.2394216e-05 0.00017310159)
(-0.00013956782 3.8279592e-06 0.00020506177)
(-0.00016450262 6.2894386e-06 0.00024782455)
(-4.6996927e-05 2.7621966e-05 6.2737014e-05)
(-8.7371366e-05 2.1244816e-05 9.267541e-05)
(-7.344479e-05 2.433874e-05 8.9224503e-05)
(-0.00011876759 -1.9636937e-06 0.00018240399)
(-0.00016686033 7.9204117e-06 0.00024604348)
(-0.00014896262 -2.9355172e-06 0.00021578069)
(-0.00013839288 -3.9349929e-06 0.0002163152)
(-4.3447835e-05 1.8546283e-05 4.7213724e-05)
(-6.4470172e-05 2.1976453e-05 8.1293921e-05)
(-6.6022315e-05 2.4049638e-05 8.0908781e-05)
(-5.5146402e-05 1.8396889e-05 6.1332988e-05)
(-6.4253246e-05 1.3658278e-05 7.2437497e-05)
(-7.1791903e-05 1.9309122e-05 8.2672418e-05)
(-4.6156615e-05 2.4204165e-05 5.7055015e-05)
(-4.3789817e-05 1.6783309e-05 4.9051752e-05)
(-4.6344923e-05 1.6542278e-05 4.9598338e-05)
(-4.130576e-05 1.6235217e-05 5.0497104e-05)
(-4.2398183e-05 1.6209196e-05 4.6256017e-05)
(-7.955716e-05 2.3935425e-05 9.9333244e-05)
(-4.8765457e-05 1.9175653e-05 5.6629104e-05)
(-4.4409651e-05 2.0590383e-05 5.7647517e-05)
(-4.791062e-05 1.5523853e-05 5.4954155e-05)
(-7.7123147e-05 1.9747925e-05 9.1405449e-05)
(-7.596888e-05 2.9826637e-05 8.0511316e-05)
(-5.6548294e-05 2.1036439e-05 6.9820724e-05)
(-7.6311209e-05 2.7446149e-05 8.1512749e-05)
(-4.3638143e-05 1.7529126e-05 5.2380509e-05)
(-4.7589318e-05 -1.4340674e-05 3.2289613e-05)
(-4.4090812e-05 1.7007856e-05 5.3623114e-05)
(-8.6007493e-05 2.8450868e-05 9.6106678e-05)
(-4.7219281e-05 1.6188885e-05 5.8033628e-05)
(-4.3882615e-05 1.7558103e-05 5.6063807e-05)
(-4.0821289e-05 1.7724996e-05 5.256543e-05)
(-4.4342593e-05 1.3351412e-05 5.1502605e-05)
(-7.9815819e-05 1.8277954e-05 9.0098074e-05)
(-4.6683453e-05 1.1513358e-05 5.5200094e-05)
(-4.6018599e-05 1.6317259e-05 6.0968992e-05)
(-5.0478661e-05 1.6194395e-05 6.4667823e-05)
(-5.1986961e-05 1.4852558e-05 5.954049e-05)
(-4.5920927e-05 1.3932137e-05 5.4146355e-05)
(-5.0206946e-05 1.3740145e-05 6.1027744e-05)
(-5.4601631e-05 -6.8245386e-06 7.6411419e-05)
(-5.3012846e-05 -7.4283834e-06 7.3188075e-05)
(-7.7291264e-05 3.5449054e-05 8.8134835e-05)
(-0.00013765825 -6.7295824e-06 0.00020587183)
(-4.5297868e-05 9.3945804e-06 5.1301845e-05)
(-5.8187532e-05 1.6256058e-05 6.9762374e-05)
(-9.1235206e-05 2.7715729e-05 0.00010070429)
(-5.3633725e-05 -7.6198889e-06 7.8360396e-05)
(-5.8376273e-05 1.1509612e-05 6.6250719e-05)
(-5.9560916e-05 1.0574734e-05 6.8140551e-05)
(-5.3891802e-05 -1.6158418e-05 7.7868952e-05)
(-9.8957331e-05 3.2236492e-05 0.00011406275)
(-6.0036904e-05 1.6565347e-05 7.1816751e-05)
(-7.4399064e-05 1.2490485e-05 8.6932242e-05)
(-5.5694154e-05 1.3070579e-05 6.8716573e-05)
(-5.2430293e-05 -1.7639043e-05 7.396001e-05)
(-5.8820177e-05 1.8454461e-05 7.4507517e-05)
(-9.7409515e-05 2.1932339e-05 0.00010696513)
(-7.8281902e-05 1.6608918e-05 9.5053979e-05)
(-2.17841e-05 -2.8551669e-05 5.7289305e-06)
(-5.6386888e-05 -1.2693822e-05 8.8708209e-05)
(-5.2220909e-05 1.5867902e-05 6.430046e-05)
(-8.5172366e-05 1.9327256e-05 9.8613114e-05)
(-5.0883659e-05 -1.1189842e-05 7.2223951e-05)
(-6.3699263e-05 1.9948332e-05 8.1366559e-05)
(-0.00015811841 -7.8920648e-06 0.00026771178)
(-5.498924e-05 -1.2430195e-05 7.3318738e-05)
(-6.027762e-05 8.9753321e-06 7.4234202e-05)
(-0.00010879731 1.678423e-05 0.0001382272)
(1.112484e-05 -3.5103547e-05 -5.2435812e-05)
(-8.5220964e-05 2.9381534e-05 9.1119797e-05)
(-7.5481255e-05 8.7931313e-06 8.7821417e-05)
(-9.5141275e-05 2.3958864e-05 0.00010393438)
(-5.6847965e-05 1.2290289e-05 6.6681681e-05)
(-7.8511758e-05 1.269425e-05 9.4249058e-05)
(-8.7173041e-05 2.3904585e-05 0.00010660794)
(-0.00016576742 -9.7256884e-06 0.00028444839)
(-6.2276256e-05 1.4611402e-05 7.5032308e-05)
(-8.4504782e-05 1.4750897e-05 9.6360646e-05)
(-7.6846826e-05 1.7619637e-05 9.2392571e-05)
(-7.5594996e-05 1.3188434e-05 8.6861564e-05)
(-6.568412e-05 1.0823371e-05 8.1898687e-05)
(-7.4083098e-05 1.4585905e-05 9.535784e-05)
(-2.2442538e-05 -4.9657795e-05 -1.3418752e-07)
(-9.1792793e-05 1.3383245e-05 0.00011216401)
(-7.1587909e-05 8.116265e-06 9.2578756e-05)
(-8.2461446e-05 8.5813001e-06 0.00010069672)
(-8.69972e-05 1.6234108e-05 0.00010887743)
(-1.6595862e-05 -4.3297139e-05 5.9091748e-06)
(-1.5515348e-05 -3.1996551e-05 7.1252239e-07)
(-2.2973234e-06 -3.6315285e-05 -2.4132708e-06)
(-8.5657617e-05 3.2018944e-06 0.00010797952)
(-6.6835747e-05 1.601154e-05 8.5918858e-05)
(-7.1992816e-05 1.0072535e-05 9.4971502e-05)
(-8.3445981e-05 1.3138602e-05 0.00010740914)
(2.6807397e-06 -3.2003616e-05 -1.280362e-05)
(-1.655238e-05 -3.1000692e-05 5.2667152e-06)
(4.1861993e-06 -3.7292524e-05 -1.6618729e-05)
(-7.7489297e-05 7.3973682e-06 9.7950406e-05)
(8.1431855e-05 7.9151481e-05 -7.5683329e-05)
(-9.0400888e-05 1.780753e-05 0.00011173478)
(-9.1182337e-05 1.7496147e-05 0.00010646727)
(-8.0980961e-05 9.9006306e-06 9.5555292e-05)
(-9.1138671e-05 1.1824604e-05 0.00011218615)
(8.6242372e-07 -3.3556804e-05 -1.5381903e-05)
(-7.9472416e-05 -1.8381835e-05 7.519856e-05)
(-9.6573932e-06 -5.6670319e-05 -1.7029906e-05)
(-9.6239048e-05 1.2554212e-05 0.00010714079)
(2.2817192e-05 -4.2688359e-05 -6.4245829e-05)
(1.0460956e-06 -3.8744856e-05 -7.5207315e-06)
(-5.1333575e-05 -9.0322963e-06 7.4977491e-05)
(6.4036112e-05 9.0580515e-05 -8.5128013e-05)
(-9.8033794e-05 -1.1613105e-05 0.00015861467)
(-5.3452241e-05 -1.4989385e-05 7.2049357e-05)
(-0.00011620307 -4.7734312e-06 0.00017903299)
(-4.7820469e-05 -1.3562394e-05 6.6370559e-05)
(-5.639746e-05 -1.7531496e-05 7.3972636e-05)
(-5.19801e-05 -2.0445928e-05 7.6596022e-05)
(-0.00011543987 -4.546926e-06 0.00018017217)
(-4.961361e-05 -1.2034995e-05 6.8526415e-05)
(-0.00016769405 1.216357e-05 0.00026467341)
(-0.00015941806 7.1995509e-07 0.00025002347)
(-4.8068734e-05 -1.4546226e-05 7.5134342e-05)
(-0.00016701479 1.5413067e-05 0.00025644517)
(-4.9104932e-05 -1.5385837e-05 7.6258756e-05)
(-4.9714569e-05 -1.2419454e-05 7.3238015e-05)
(-1.7306179e-05 -3.0243399e-05 4.3513305e-06)
(-0.00024496295 3.3761481e-05 0.00039911049)
(-0.00013570187 4.5907682e-06 0.00017558881)
(-0.00011571044 -5.1008835e-06 0.00018445651)
(-0.00011172888 -3.7568304e-06 0.00017628078)
(-7.6395825e-05 -2.4573234e-05 7.71695e-05)
(-8.1810603e-05 -1.0448815e-05 7.9595496e-05)
(-0.00016268625 -9.6590406e-06 0.00025777396)
(-2.0284278e-05 -2.4623581e-05 2.3731991e-06)
(-0.0001349627 -5.3157455e-06 0.00020965258)
(-1.8128492e-05 8.7861734e-06 7.4273311e-05)
(-0.00017581307 3.7719499e-06 0.00030250515)
(-0.00011848162 2.3907842e-07 0.00018669429)
(-0.00014947597 -1.1410759e-05 0.0002320025)
(-0.00016034067 -3.4007691e-06 0.000251563)
(-0.00015041792 -5.00182e-06 0.00023079955)
(-0.0001420066 -4.657276e-06 0.00021510172)
(-0.00014527049 -1.6699912e-06 0.00022056578)
(-0.00016438423 -5.437342e-06 0.00026050091)
(-0.00016501414 -2.2818207e-06 0.00026944383)
(-0.000163502 2.2363916e-07 0.00026564872)
(-0.00016735325 -1.9209536e-06 0.00026648279)
(-0.00013866569 -7.1801049e-07 0.0002403306)
(-0.00017135169 3.0559408e-06 0.00027295925)
(-0.00013274866 4.4267242e-06 0.00022427741)
(-6.5014385e-06 -5.2416799e-05 -2.714009e-05)
(-0.00013639593 4.2579097e-06 0.00023309057)
(-0.00013420589 4.8813828e-06 0.00023494107)
(-0.0001761608 5.4475796e-06 0.00030487763)
(-0.00012286178 4.4279451e-07 0.00019454312)
(-0.00013616454 2.808451e-06 0.00023312263)
(-0.00010590173 2.4902232e-06 0.00019069492)
(-0.0001410346 -1.3882207e-06 0.00022735488)
(-0.00011272915 9.0226051e-06 0.00021562022)
(-0.00013981214 5.2541657e-06 0.00022691603)
(-0.00013094891 1.4409075e-05 0.00024582187)
(1.2805804e-05 -3.8289513e-05 -2.8848518e-05)
(-9.2346481e-05 6.8671094e-06 0.00018072664)
(-0.00010977757 1.0161865e-05 0.00022033579)
(-7.7424432e-05 8.8138189e-06 0.00016006563)
(-0.00012506135 -2.2742004e-06 0.00018180458)
(-9.9957762e-05 1.6877587e-05 0.00021099724)
(-9.0872336e-05 1.2453382e-05 0.00019534474)
(-0.00012398573 1.1077666e-05 0.00022613575)
(-0.0001896023 1.1999784e-05 0.00026331451)
(-8.3563024e-05 1.4931187e-05 0.00018110779)
(-0.00012222173 1.1023522e-05 0.00023237597)
(-9.8890844e-05 1.1309356e-05 0.00011882787)
(-6.432321e-05 1.0796294e-05 0.00016130713)
(7.0009847e-05 5.2796272e-05 -5.8033299e-05)
(-0.0001060178 7.853827e-06 0.00022825815)
(-0.00012314368 9.2805969e-06 0.0002233259)
(-8.296485e-05 1.5293419e-05 0.00019324318)
(-8.4398071e-05 1.5088311e-05 0.00018070119)
(-0.00012020667 9.3476822e-06 0.00024515793)