/*--------------------------------*- C++ -*----------------------------------*\
  =========                 |
  \\      /  F ield         | OpenFOAM: The Open Source CFD Toolbox
   \\    /   O peration     | Website:  https://openfoam.org
    \\  /    A nd           | Version:  11
     \\/     M anipulation  |
\*---------------------------------------------------------------------------*/
FoamFile
{
    format      ascii;
    class       volVectorField;
    location    "10000";
    object      wallShearStress;
}
// * * * * * * * * * * * * * * * * * * * * * * * * * * * * * * * * * * * * * //

dimensions      [0 2 -2 0 0 0 0];

internalField   uniform (0 0 0);

boundaryField
{
    wall-fluid_domain
    {
        type            calculated;
        value           nonuniform List<vector> 
42113
(
(-0.0001145487 -4.0691908e-05 0.00013578663)
(-3.213882e-05 -3.7790675e-05 4.906756e-05)
(-0.00010082097 -5.6969979e-05 0.00011933881)
(-2.922008e-05 4.4570495e-05 0.00012646754)
(-0.00010118288 -4.4189931e-05 0.00010730949)
(-6.983841e-05 -4.9375191e-05 7.8167159e-05)
(-0.00011108991 -4.1917599e-05 0.00011940964)
(-8.1061308e-06 3.5679671e-05 7.5428965e-05)
(-3.3797252e-05 -3.4665362e-05 4.6594563e-05)
(-0.00011713972 -4.3521132e-05 0.00012498636)
(-0.00010938429 -3.196127e-05 0.00012050734)
(-0.0001236282 -4.8295097e-05 0.00014110132)
(-0.00015174893 -9.1730717e-06 0.00021303915)
(-7.9511646e-05 -4.3725084e-05 8.4823327e-05)
(-0.0001199894 -4.2476094e-05 0.00013276536)
(-5.3612929e-05 -6.0074541e-05 6.8888768e-05)
(-4.4097487e-05 -5.3070444e-05 5.7725851e-05)
(-5.3434921e-05 -5.2436893e-05 5.8317483e-05)
(-7.3980428e-05 -4.5392014e-05 7.2006786e-05)
(-8.0708913e-05 -5.4404615e-05 8.3537439e-05)
(-0.00012593645 1.2516549e-05 0.00014338974)
(-0.00012450193 7.9556195e-07 0.00020882683)
(-0.00015223793 -2.0075462e-05 0.00014909606)
(-5.063006e-05 -3.8941332e-05 9.4348122e-05)
(-3.329456e-05 -3.8952449e-05 4.9876185e-05)
(-3.4994166e-05 3.8256933e-05 0.0001161968)
(-0.0001037228 -4.6923525e-05 0.00010777241)
(-0.00011501285 2.4737657e-06 0.00019769587)
(-7.1052997e-05 -5.9765659e-05 7.2069045e-05)
(-5.3447131e-05 -5.0095055e-05 6.094366e-05)
(-8.778409e-05 -4.7387515e-05 9.1137314e-05)
(-3.5069935e-05 -3.4957367e-05 5.4145037e-05)
(-0.00011423473 2.8042034e-06 0.00019969232)
(-8.7364601e-05 -1.9794415e-05 0.00010560558)
(-3.9007622e-05 -3.9875255e-05 5.420647e-05)
(-5.2375802e-05 -3.4970158e-05 8.1346344e-05)
(-0.00012837768 -2.5289917e-05 0.00010753988)
(-3.7372332e-05 3.3409781e-05 0.00011360561)
(-3.9003862e-05 -5.0142082e-05 5.0103598e-05)
(-8.5879928e-05 -5.5916095e-05 9.3091004e-05)
(-6.419442e-05 -4.772873e-05 6.4498064e-05)
(-0.00010060631 7.1886685e-06 0.00017117024)
(-3.7327747e-05 -4.0581406e-05 4.4885814e-05)
(-0.00010789183 -8.1467344e-06 0.00015676495)
(-0.00012494042 -4.067748e-05 0.0001389802)
(-8.6775345e-05 -5.2724279e-05 0.00010185255)
(-5.787752e-05 -5.764732e-05 7.1550274e-05)
(-6.2442235e-05 -5.1984017e-05 7.7823708e-05)
(-3.812746e-05 -4.802901e-05 5.0915256e-05)
(-4.7597624e-05 -5.2783662e-05 5.5744002e-05)
(-0.00010368275 -1.4350524e-05 0.00016376319)
(-8.904145e-05 -6.1531792e-05 0.00010854567)
(-4.7218252e-05 -3.4976878e-05 7.376302e-05)
(-3.0065129e-05 4.3923239e-05 0.00012400157)
(-0.00012560078 1.4902373e-05 0.00020781965)
(-3.6528954e-05 -4.7319274e-05 4.7983493e-05)
(-0.00010594307 3.8512393e-05 0.00010891589)
(-0.00017026591 -7.2141604e-06 0.00028304029)
(-5.1100824e-05 -5.1203404e-05 5.2440673e-05)
(-4.9251661e-05 -5.9681723e-05 5.7332067e-05)
(-8.3472109e-05 -7.202494e-06 0.00012067542)
(-4.2420511e-05 -4.0365358e-05 6.3851625e-05)
(-9.4872137e-05 -6.7253837e-05 0.00011673509)
(-2.3406972e-05 -4.5219663e-05 5.1889871e-05)
(-3.6145849e-05 -5.0974661e-05 4.8485589e-05)
(-9.8926711e-05 5.6343704e-08 0.00015261105)
(-0.00022430799 -6.1399388e-06 0.00036929225)
(-5.9566481e-05 -6.1865825e-05 7.814535e-05)
(-2.9166108e-05 -3.8384381e-05 4.3393802e-05)
(-0.00010479514 7.3952618e-06 0.00017525361)
(-0.00010446071 3.5017679e-06 0.0001739451)
(-8.242787e-05 -3.7221445e-06 0.00012058881)
(-4.1600235e-05 -5.9669816e-05 4.7775415e-05)
(-3.4664079e-05 -4.3020782e-05 4.3777363e-05)
(-3.0599238e-05 -4.5919762e-05 3.728066e-05)
(-0.00010094027 -4.7953499e-06 0.00015211735)
(-8.89453e-05 -6.0904914e-06 0.00013023316)
(8.3422553e-05 5.7605117e-05 -0.00011142239)
(-3.4187499e-05 -5.5152152e-05 4.6939111e-05)
(-8.6382228e-05 -5.5702769e-06 0.00012920152)
(-3.7213492e-05 -5.0494349e-05 5.4899307e-05)
(-1.3206225e-05 2.8770305e-05 7.2845345e-05)
(-9.9474918e-05 -2.9550764e-06 0.00017346823)
(-4.3942129e-05 -6.0046918e-05 5.9014662e-05)
(1.9278752e-05 -4.4644482e-05 -4.0386219e-05)
(-9.6665104e-06 4.1023231e-05 9.3637552e-05)
(-9.0823765e-05 -2.2890196e-05 0.00011528813)
(1.0494371e-05 -5.286614e-05 -4.503348e-05)
(-3.5693147e-05 -6.2349139e-05 5.7821976e-05)
(-8.0039985e-05 -5.3875378e-06 0.00011237141)
(-2.4254453e-05 4.2910083e-05 0.00010008854)
(-2.2549147e-05 4.5495039e-05 0.00010131273)
(-0.00014193525 -3.0182337e-05 0.00013587207)
(-0.0001287531 -4.6110333e-05 0.00014933057)
(-2.1256797e-05 3.8714328e-05 0.00010429537)
(-5.0975259e-05 -3.7499728e-05 8.8964224e-05)
(-1.73082e-05 4.6515177e-05 0.00011060678)
(-0.00022174732 -1.1878363e-05 0.0003949344)
(-9.9490663e-05 -2.7137025e-05 0.00011159636)
(-3.3601372e-05 -2.7818791e-05 4.8968816e-05)
(-0.0001753952 -3.12286e-06 0.00032332906)
(-0.00014326106 -5.5304501e-06 0.00023925559)
(-2.4100951e-05 -4.7138304e-05 3.4277859e-05)
(-5.8063338e-05 -6.3755083e-05 7.1865969e-05)
(-0.00013101743 -3.1500475e-05 0.00011664137)
(-0.00016257825 -3.6105645e-06 0.00028203932)
(-1.3505913e-05 3.8229778e-05 6.9410943e-05)
(-8.3957424e-05 1.7688592e-05 0.00017744333)
(-3.0419817e-05 -5.5441915e-05 3.7917454e-05)
(-4.9729604e-05 -6.0887854e-05 6.1892498e-05)
(-0.0002225421 -7.4609912e-06 0.00038458068)
(-0.00016683801 3.0729415e-06 0.00026432349)
(9.651107e-05 5.9177786e-05 -0.00014783913)
(-9.4230154e-05 1.8865588e-05 0.00018450062)
(-0.00023270108 -5.4938662e-08 0.0004001778)
(-0.0001199214 1.1423501e-05 0.00022965053)
(-8.982664e-05 3.1487239e-05 0.00020433659)
(-0.00010014872 1.7560044e-05 0.00021227236)
(-0.00016158058 -9.0791364e-06 0.00013671963)
(-0.00023741181 6.9106874e-07 0.00041035083)
(-2.5749043e-05 -5.5954099e-05 4.323738e-05)
(-0.00013283084 2.312707e-05 0.00013792011)
(-0.00011511366 -3.3279011e-05 0.00013154753)
(-0.00010620114 1.3240014e-05 0.00019135806)
(-0.00012388718 1.2770853e-05 0.00022839727)
(-2.5555022e-05 -5.6201765e-05 4.6191366e-05)
(-0.00015393062 -1.8395953e-06 0.00026152413)
(-0.00021994899 -1.4699035e-05 0.00036446663)
(-0.00022721673 -1.7576111e-05 0.00037922534)
(-0.00010400686 2.0016278e-05 0.00020170735)
(-0.00010074559 1.3975931e-05 0.00018292696)
(-4.8187168e-05 -3.8639884e-05 8.1987191e-05)
(-9.1530519e-05 4.8417152e-06 0.00015618748)
(-0.0001029035 7.8002211e-06 0.00018248785)
(1.5108765e-05 5.3939719e-05 9.622085e-05)
(-0.0002199055 -8.7370372e-06 0.00036014851)
(-9.3528325e-05 -2.9319792e-05 0.00012423796)
(-0.00024719247 -8.6242151e-06 0.00039899454)
(-3.737516e-05 -3.7623016e-05 7.1353053e-05)
(-0.00018135914 7.4464345e-07 0.00032600411)
(-9.2143378e-05 3.5651027e-06 0.00011990308)
(-5.4770441e-05 -5.322997e-05 9.942321e-05)
(-0.00019812928 -1.141938e-05 0.0003504465)
(-0.0001296519 -3.4896031e-05 0.00013858663)
(-1.5073353e-05 4.5686152e-05 0.00011563194)
(-0.00010451886 -6.756355e-07 0.000172701)
(-9.5431834e-05 -2.2342692e-05 0.00011405385)
(-2.5847105e-05 3.9757246e-05 0.00010749805)
(9.1596888e-05 -1.242035e-05 -0.00013257209)
(-0.00020843877 1.5603866e-06 0.00034528328)
(3.7918502e-05 1.8055841e-05 7.8786134e-05)
(7.6428776e-05 -5.9193523e-06 -0.00011687677)
(-0.00021476653 -2.1288127e-06 0.00036798441)
(-0.00014090068 5.069752e-06 0.00022939121)
(-0.00019916844 6.5910831e-06 0.00034371975)
(-0.00020965298 -1.282598e-05 0.00035897524)
(-0.000109037 -2.0731054e-06 0.00017398718)
(-9.5620861e-05 -3.5382456e-06 0.00013983025)
(-0.00021786616 -7.5740129e-06 0.00036713024)
(-0.00011111574 -4.2585174e-06 0.00017187735)
(-6.4546319e-05 2.8091376e-05 0.00016016071)
(-9.9284929e-05 -3.5646361e-06 0.00014587924)
(-0.00010485254 -7.8654612e-06 0.00018209316)
(-9.6803199e-05 -1.1541948e-05 0.00014566403)
(-0.00011603513 -1.0509959e-06 0.00018197402)
(-8.8707122e-05 -3.3984098e-06 0.00013201433)
(-0.00010416193 4.3358997e-06 0.00016107022)
(-3.1368995e-05 4.2898228e-05 0.00010638858)
(-0.00013533018 4.6934153e-06 0.00021894663)
(-0.00010145733 2.9207548e-06 0.00014931774)
(-9.5357968e-05 -1.1283645e-05 0.0001405071)
(-9.9744968e-05 5.0873877e-06 0.00014921446)
(-0.00011605765 -2.8872841e-06 0.00018810563)
(-2.3090101e-05 4.2687206e-05 9.9604866e-05)
(-9.0340992e-05 -6.3686288e-06 0.00013666884)
(-0.00011498355 -4.6204178e-06 0.00016824697)
(-0.00011810466 -4.6814855e-06 0.00019237154)
(-0.00013290293 -2.7809371e-06 0.00020890415)
(-9.2330824e-06 -3.1686994e-05 -2.6864266e-05)
(-9.9785538e-05 1.1752586e-06 0.00015330552)
(-0.00016356181 2.4925889e-05 0.00018198307)
(-1.8481523e-05 4.1136398e-05 0.00010348049)
(-0.00020167613 -2.5028616e-06 0.00032174723)
(-0.00013759551 -7.8525065e-06 0.00021409205)
(-0.00012627403 -2.5621184e-06 0.00019294199)
(-0.00010410511 -2.7918155e-05 0.00011376194)
(-2.0114969e-05 -3.9255663e-05 6.3238678e-05)
(-0.00011781068 -9.097668e-06 0.00017449695)
(-3.1879639e-05 -4.4683623e-05 5.0752411e-05)
(-8.0793034e-05 -5.9189884e-06 0.00011524955)
(-4.7358572e-05 -3.8337255e-05 9.6690902e-05)
(-0.00012920198 -4.3870773e-06 0.00019195177)
(-3.2807063e-05 4.115953e-05 0.00011150683)
(-2.3546124e-05 -4.1883022e-05 4.5120983e-05)
(-0.00013830712 -8.6642955e-06 0.00021551896)
(-0.00015429211 8.6366995e-06 0.00024381174)
(-9.1605687e-05 -2.5972306e-06 0.00013348603)
(-9.3977108e-05 1.6592068e-05 0.00019331807)
(-0.00019843807 3.1640984e-06 0.00032630672)
(-0.00010327976 -3.2458505e-06 0.00015292536)
(-2.5280832e-05 -5.3063435e-05 4.9296054e-05)
(-0.00013169662 -2.4743848e-06 0.00021370803)
(-0.00012034163 -5.3232382e-06 0.0001967342)
(-0.0002436515 3.7345423e-06 0.0004229048)
(-0.00022924245 6.1346416e-06 0.00042016311)
(-9.1131507e-05 -2.7618733e-06 0.00012786747)
(-7.8500991e-05 -1.1664468e-05 0.00010174417)
(-2.9634433e-05 3.603848e-05 0.00011245793)
(5.4335644e-05 8.4846027e-05 -8.7338921e-05)
(-1.7170375e-05 4.3124507e-05 8.1158797e-05)
(-0.00024060002 4.1285302e-07 0.00040833429)
(-0.00021266402 -1.6543371e-05 0.00034619917)
(-0.00020428161 -1.3175109e-05 0.00032996187)
(-4.5343379e-05 -3.7678844e-05 8.8540437e-05)
(-5.2633931e-05 -4.1228136e-05 9.5174262e-05)
(-0.00014600928 -4.0385215e-07 0.00023752083)
(1.2017314e-05 -3.6888835e-05 -3.0900761e-05)
(-5.3510459e-05 -3.9449606e-05 8.5014877e-05)
(-0.000142602 -1.1255677e-05 0.00023933835)
(-2.1607201e-05 -5.0453316e-05 4.0981107e-05)
(-3.778106e-05 -3.3567122e-05 6.4990469e-05)
(-0.00028219252 7.0094695e-06 0.00050178939)
(8.3599576e-05 9.9131671e-05 -0.00015388276)
(-3.0201325e-05 4.076466e-05 0.00010247126)
(-0.00020756832 -3.6364256e-06 0.00035616668)
(-0.00012850629 -5.730619e-05 0.00013753143)
(-0.00013545346 -1.0598629e-05 0.00023038035)
(-3.1275431e-05 -3.686031e-05 5.7383455e-05)
(-0.00012032094 -5.8007937e-05 0.00012959395)
(-2.4670821e-05 4.4396664e-05 9.7711653e-05)
(-0.00012189938 -6.3793403e-05 0.00013154455)
(-0.00017282082 -3.0366576e-06 0.00028696112)
(-0.00016681697 2.0709508e-07 0.00027070486)
(-2.1544528e-05 3.9468144e-05 7.8474552e-05)
(-0.00017273217 -2.7239239e-06 0.00027891968)
(-0.00015087631 -4.0177641e-05 0.00010222738)
(-0.00017861223 -4.2353599e-06 0.00028911582)
(-2.3667645e-05 4.3721414e-05 8.4242406e-05)
(-0.00011180075 1.4843992e-05 0.00016821355)
(-0.00023694112 -1.2102221e-05 0.00038945427)
(-5.0166297e-05 3.3887223e-05 0.0001415281)
(-0.00023834585 -1.7234127e-06 0.00040909706)
(-0.00013392407 -2.7275662e-06 0.00023876242)
(-0.0002232629 -3.4759886e-06 0.00036182002)
(-0.00010777158 6.8306194e-06 0.00015562432)
(-4.6332277e-05 -5.1240433e-05 8.8132055e-05)
(-5.4856375e-05 3.5303306e-05 0.00013991578)
(-4.1403013e-05 3.6994654e-05 0.00011727545)
(-4.0861687e-05 -3.7172009e-05 6.9065255e-05)
(-0.00013729589 -1.9361805e-07 0.00022611381)
(-2.5961907e-05 -3.167294e-05 5.9028029e-05)
(-3.2953414e-05 3.5847718e-05 9.842736e-05)
(6.2843612e-05 -5.7866024e-05 -0.00011584218)
(-4.5215893e-05 3.6778651e-05 0.00011144759)
(-0.00022770169 -1.3857423e-05 0.00037141151)
(-5.40596e-05 3.3631218e-05 0.00013504964)
(-2.9922801e-05 -4.9949728e-05 5.9024442e-05)
(-4.9044364e-05 4.101313e-05 0.00013105985)
(-0.00016149871 -7.3979737e-06 0.00025628863)
(-3.8024216e-05 3.5987011e-05 0.0001132702)
(-0.00015925466 -2.7102619e-05 0.0001334377)
(-2.8520482e-05 -3.7883274e-05 4.0765739e-05)
(-0.00018796285 -1.0577401e-05 0.00030178834)
(-1.3643737e-05 3.9805328e-05 8.6446637e-05)
(-2.7706495e-05 -4.7369466e-05 4.1469579e-05)
(-0.00021932599 -6.4905795e-06 0.00034410563)
(-0.0001020125 -5.4012275e-05 0.00011096271)
(-2.9019466e-05 3.595474e-05 9.9695792e-05)
(7.6077988e-05 8.2081568e-05 -0.00013102124)
(-0.00029371096 1.0466599e-05 0.00051027234)
(-3.7531391e-05 3.8698472e-05 0.0001133809)
(-0.00012620686 -6.596605e-05 0.0001385908)
(-0.00020652639 -3.586644e-06 0.00036478264)
(8.3517384e-05 9.9654926e-05 -0.0001307019)
(-2.462911e-05 -4.3006463e-05 3.798748e-05)
(5.633104e-05 8.3421731e-05 -9.6880539e-05)
(-0.0002391409 1.2053185e-05 0.0002925954)
(-4.029748e-05 -3.4405177e-05 5.8341424e-05)
(-0.00024494942 9.8468817e-06 0.00028260345)
(-6.3491313e-05 2.594775e-05 0.00015998343)
(-0.00025204173 -2.0733807e-05 0.00031651026)
(-0.0001970852 -1.4910797e-05 0.00025470394)
(-3.7328908e-05 -4.0703329e-05 7.7175636e-05)
(-0.00011757661 -7.2093338e-05 0.00015073082)
(-0.00011719665 -7.3766187e-05 0.00014569461)
(-1.6794037e-05 4.0941188e-05 7.1497176e-05)
(-2.122058e-05 -5.488071e-05 4.3942258e-05)
(-0.00011507166 -7.1429808e-05 0.00014428377)
(-0.00024298183 3.8535243e-06 0.00042076739)
(-2.0076202e-05 3.9865238e-05 7.3729436e-05)
(-2.3040517e-05 4.4162075e-05 8.0692406e-05)
(-2.2757286e-05 4.1953503e-05 7.9212453e-05)
(-1.5448745e-05 3.9663484e-05 6.7941193e-05)
(-1.4725434e-05 3.7663864e-05 6.393014e-05)
(-0.00010650504 -3.54725e-05 0.00013291959)
(-2.7079487e-05 4.8635114e-05 8.3760733e-05)
(-1.7832949e-05 4.567716e-05 7.7232255e-05)
(-0.00013273281 -1.1862952e-05 0.00016164949)
(-0.00012265718 -2.4177591e-06 0.00021640181)
(-4.0580347e-05 -4.8401152e-05 7.5449958e-05)
(-0.0001049924 -5.0141393e-05 0.00014248718)
(-0.00010718393 -2.6301777e-05 0.00012218374)
(-3.7612841e-05 -4.5372883e-05 7.7939605e-05)
(-0.00012682001 -1.2807035e-05 0.00016714566)
(-0.00028153427 1.4153981e-05 0.00048038443)
(-2.3051213e-06 4.9502038e-05 3.1178915e-06)
(-3.1969015e-05 -4.8103905e-05 6.9054214e-05)
(-3.7216184e-05 -5.2049638e-05 6.4496855e-05)
(-0.00024720286 -4.9493594e-06 0.0003856564)
(-9.3373736e-06 4.79392e-05 1.483534e-05)
(-2.9215621e-05 -4.2660518e-05 5.2470689e-05)
(-0.00021215125 -5.7622684e-06 0.00033671362)
(-1.3181307e-05 6.4550536e-05 2.5077858e-05)
(-9.4591987e-05 -3.1542994e-05 0.00014193373)
(-2.7883175e-05 -5.0852087e-05 5.8499248e-05)
(-8.507188e-05 -1.3759415e-05 0.0001024534)
(-2.7793789e-05 -5.1616029e-05 5.82694e-05)
(-7.9161785e-05 -1.6663566e-05 9.6401587e-05)
(-1.647407e-05 -5.6319123e-05 5.09403e-05)
(-0.00021330353 -7.0538634e-06 0.00035530414)
(-1.5484809e-05 -5.1441154e-05 5.517572e-05)
(-4.4898733e-05 -3.9188197e-05 9.0584175e-05)
(-2.7977275e-05 -4.3204838e-05 4.5688033e-05)
(-2.5159805e-05 -4.3760883e-05 5.0575184e-05)
(-1.672468e-05 -4.4107074e-05 4.8029759e-05)
(-0.0002452952 -3.0199425e-05 0.00021993897)
(-4.8996362e-05 -4.034727e-05 9.5852026e-05)
(-2.9801171e-05 -4.6531328e-05 3.5278431e-05)
(-1.6653677e-05 -4.5096883e-05 4.8459705e-05)
(-1.8109292e-05 -4.3731977e-05 4.2423007e-05)
(-1.7638734e-05 -3.9056525e-05 4.5312759e-05)
(-0.00018553795 -1.0644376e-06 0.0003323595)
(-0.00021412793 -1.5147685e-05 0.00035265511)
(-9.7690974e-06 -4.1286568e-05 4.9564277e-05)
(-0.00022201761 -3.0562208e-06 0.00038607523)
(-1.1275847e-05 -3.9478811e-05 4.9431234e-05)
(-1.4136878e-05 -4.680264e-05 4.1996524e-05)
(-1.9849608e-05 -5.3218621e-05 3.8227095e-05)
(-1.3663054e-05 -4.1887148e-05 4.3829207e-05)
(-1.1586678e-05 -4.399908e-05 4.2529825e-05)
(-1.978932e-05 -4.1160802e-05 4.043135e-05)
(-0.00023194772 1.9188337e-05 0.00038122779)
(-1.1328309e-05 -4.7360543e-05 2.594821e-05)
(4.6582253e-05 1.826387e-05 8.0832824e-05)
(-3.8116449e-05 -3.9707032e-05 9.0360346e-05)
(-7.8534111e-05 2.4436166e-05 0.00017596759)
(-4.126044e-06 -4.6077062e-05 4.6316298e-05)
(-1.9910705e-05 -4.5988904e-05 3.7653727e-05)
(-1.2781097e-05 -5.5312628e-05 3.5204867e-05)
(-1.3735116e-05 -4.6925523e-05 4.5117164e-05)
(-6.0072274e-06 -3.9522451e-05 3.299794e-05)
(-6.0393894e-06 -4.659967e-05 2.8846082e-05)
(-1.5565341e-05 -5.3068997e-05 3.9601011e-05)
(-0.00011299846 -2.6214144e-05 0.00011993673)
(9.0002707e-07 -5.1649805e-05 3.6407109e-05)
(-4.2379548e-06 -4.5010391e-05 3.4871055e-05)
(-9.5934718e-06 -4.4719059e-05 4.7869666e-05)
(-1.6619664e-05 -5.7732202e-05 4.7898717e-05)
(-8.2110621e-05 3.1065508e-05 0.00013366255)
(-1.3792517e-05 -4.2128709e-05 4.897835e-05)
(-8.469878e-06 -4.6630162e-05 4.3238079e-05)
(-0.0002667078 -8.8442121e-06 0.00042441498)
(8.3973211e-07 -5.3737575e-05 3.0837064e-05)
(4.7602311e-06 -4.5570671e-05 2.2367833e-05)
(-8.8260231e-07 -4.2289485e-05 3.8021934e-05)
(-0.00010496532 -2.7429683e-05 0.00012391045)
(-4.144107e-06 -5.2645485e-05 4.0369747e-05)
(-4.7718956e-06 -4.6500456e-05 3.2008925e-05)
(-0.0001624721 3.3462579e-06 0.00021536965)
(-0.00024356447 -6.6776287e-06 0.00039599429)
(-4.1700273e-06 -4.369781e-05 4.2849766e-05)
(-2.8701027e-05 -4.4882929e-05 7.6940578e-05)
(-1.157525e-05 -4.5812708e-05 4.5376629e-05)
(-3.5210371e-05 -4.6018799e-05 7.4011126e-05)
(8.2307911e-08 -4.6665444e-05 4.2474131e-05)
(-7.2047533e-07 -4.3602652e-05 4.2873039e-05)
(7.0080117e-05 9.8152827e-05 -9.0410847e-05)
(-3.9761239e-05 -4.1593319e-05 9.0221331e-05)
(-6.6338924e-07 -4.1413441e-05 4.5717216e-05)
(-4.5334712e-05 -4.2547021e-05 0.00010829886)
(4.5576486e-06 -4.7525862e-05 4.5131284e-05)
(5.7702268e-06 -4.555879e-05 2.3888891e-05)
(7.6744476e-06 -5.0391592e-05 2.6524035e-05)
(-1.6697831e-05 -5.1901149e-05 4.1792208e-05)
(-1.8631209e-05 -4.7823616e-05 6.6354295e-05)
(4.6505144e-06 -3.9227801e-05 2.0888393e-05)
(6.1633735e-06 -4.8761342e-05 4.173853e-05)
(-1.4032333e-05 -3.8011635e-05 4.8478705e-05)
(2.3842265e-06 -5.1212166e-05 2.5987652e-05)
(1.2901613e-05 -4.5929567e-05 3.9587609e-05)
(-1.1993337e-05 -4.989854e-05 2.9054466e-05)
(8.2330009e-06 -4.2002493e-05 3.4595443e-05)
(-2.1215863e-06 -4.0654755e-05 4.7600975e-05)
(6.7342299e-06 -4.0336119e-05 2.3050001e-05)
(-1.660392e-05 -4.8428634e-05 4.5425868e-05)
(1.420465e-05 -4.5306535e-05 3.1352856e-05)
(0.00011638752 6.465927e-05 -0.00017039976)
(9.1880586e-08 -4.3186628e-05 5.0352729e-05)
(-8.2728229e-05 2.8936915e-05 0.00017557201)
(-0.00022766371 -6.1128424e-06 0.00036808536)
(4.4516336e-06 -4.6752221e-05 2.3382885e-05)
(2.4579373e-06 -5.1158069e-05 1.5535836e-05)
(-2.8251392e-05 -3.9978064e-05 -9.3618879e-07)
(-1.7711859e-05 -3.7756403e-05 -5.3096694e-06)
(-9.6196628e-05 1.9491637e-05 0.00018786344)
(-4.5118758e-07 -4.2541847e-05 6.8104142e-05)
(-1.8155382e-05 -4.7275293e-05 3.0300473e-05)
(-1.39626e-07 -5.5339139e-05 3.3696583e-05)
(-3.325751e-05 -4.6884934e-05 8.2806513e-05)
(-3.4754783e-06 -5.6121535e-05 3.851462e-05)
(-2.750257e-05 -3.5234189e-05 6.471083e-05)
(1.5869868e-06 -4.1471798e-05 5.3449918e-05)
(-5.6795252e-06 -4.3766241e-05 6.1684913e-05)
(5.4803518e-06 -4.2251441e-05 5.3191681e-05)
(4.1101965e-07 -3.9714452e-05 6.5879835e-05)
(-0.00010955691 -8.4835808e-06 0.00015701526)
(1.3082976e-05 -4.1111641e-05 2.5458856e-05)
(-0.00022848248 -7.7013896e-06 0.00038811301)
(1.9589033e-05 -3.9078539e-05 4.1556255e-05)
(1.5544891e-05 -5.0018452e-05 2.5208824e-05)
(1.6657449e-05 -4.0237257e-05 3.024042e-05)
(9.5120707e-06 -4.0552515e-05 3.8791995e-05)
(1.3395913e-05 5.156872e-05 -2.0383174e-05)
(-8.1179153e-06 -3.9661197e-05 6.5715582e-05)
(-1.5281576e-05 -6.1634874e-05 3.7000736e-05)
(-1.7944002e-05 -3.2586222e-05 -1.2935126e-05)
(-1.6851033e-05 -4.3567014e-05 6.4683585e-05)
(-4.1219084e-05 3.4764558e-05 0.00010243876)
(-5.1215162e-05 3.7285931e-05 0.00012321957)
(1.0515182e-05 -4.0780854e-05 4.5264765e-05)
(2.1757143e-05 -3.4781713e-05 3.2685297e-05)
(-4.0374577e-05 -3.9522005e-05 8.9715098e-05)
(2.0144307e-05 -3.8474797e-05 2.7695101e-05)
(-6.1340528e-05 3.5854308e-05 0.00014117047)
(1.5668977e-05 -4.1364095e-05 3.7280545e-05)
(-0.00021043876 1.6335209e-05 0.00035243839)
(-0.0001600097 -5.9956457e-06 0.0002865438)
(-9.0624771e-06 -4.4061447e-05 7.0702217e-05)
(-0.0001952666 -1.1734256e-05 0.000259468)
(-2.3599873e-05 4.7754078e-05 8.2364027e-05)
(-0.00017796417 3.1597555e-06 0.00030081647)
(-2.0005656e-05 4.3786377e-05 7.7165386e-05)
(1.7064894e-05 -3.7762575e-05 2.5358781e-05)
(-0.00018223909 4.3873635e-06 0.00030431629)
(-2.7357784e-05 -4.6325331e-05 7.0665318e-05)
(-0.0001504002 -9.5937081e-07 0.00025765654)
(2.8966126e-06 -3.9141579e-05 5.1891903e-05)
(2.0432246e-05 -3.6950039e-05 2.7430209e-05)
(-0.00022439607 1.6826971e-05 0.00038043116)
(8.0548817e-05 9.1747035e-05 -7.0884866e-05)
(-0.0001840332 -8.5830725e-06 0.00023086589)
(-1.368458e-05 -3.7754584e-05 6.3033434e-05)
(1.7558883e-05 -3.9886637e-05 3.8779048e-05)
(-3.3264979e-05 -3.9951806e-05 9.1379042e-05)
(-0.00018376567 -1.178881e-05 0.00023650479)
(-3.5614465e-05 -3.95637e-05 9.0811518e-05)
(1.7828623e-05 -4.1518691e-05 2.6481433e-05)
(-1.3684789e-05 -4.5962817e-05 7.0140931e-05)
(-0.00015399902 -1.650049e-07 0.00025354364)
(1.703084e-05 -4.0379558e-05 4.02972e-05)
(1.6140787e-05 4.4887551e-05 -2.5327219e-05)
(1.1807909e-05 -4.3426085e-05 4.4413134e-05)
(-0.00025662849 2.3068137e-05 0.00043770156)
(-0.00011915762 -2.1529249e-05 0.00014756987)
(-9.3029414e-05 -2.2142872e-06 0.00017262084)
(-0.00013651571 -5.0394629e-06 0.00023738798)
(-1.9183187e-05 -4.0976066e-05 7.2523452e-05)
(2.5680778e-05 -3.6892653e-05 2.5185967e-05)
(2.7554691e-05 -4.2445537e-05 5.3234034e-05)
(-0.00018672636 -6.7743718e-06 0.00024868145)
(-0.00011408531 -1.7255453e-06 0.00020857143)
(-0.00017479285 6.8564898e-06 0.00028319615)
(-0.0002123907 -7.4393311e-06 0.00030073872)
(-2.8484151e-05 -3.6993911e-05 6.7932654e-05)
(1.7041483e-05 -4.2010255e-05 4.9320866e-05)
(1.6203483e-05 -3.9581043e-05 4.3981804e-05)
(-4.7758257e-06 -4.2431565e-05 6.3852351e-05)
(8.9154868e-06 -4.8645626e-05 6.0315407e-05)
(1.9381317e-05 -4.536337e-05 5.5197281e-05)
(-1.5711163e-05 -4.1642203e-05 7.5169467e-05)
(-1.6523335e-05 -4.0173803e-05 7.4009034e-05)
(-2.1087631e-05 -4.3206217e-05 7.2179372e-05)
(-3.6883064e-05 -3.4522278e-05 8.6229284e-05)
(-2.7556223e-05 -3.9747014e-05 7.5555647e-05)
(3.1152501e-05 -4.4266045e-05 6.8249205e-05)
(-8.3631715e-06 -4.1638061e-05 7.0071581e-05)
(-2.7578901e-05 -3.75066e-05 9.0968034e-05)
(-2.2905023e-05 -3.8507162e-05 7.8328367e-05)
(2.4726697e-05 -4.1383017e-05 6.7962625e-05)
(2.5618599e-05 -3.2979952e-05 2.800129e-05)
(-8.3382489e-07 -4.0508229e-05 6.7248785e-05)
(2.2066102e-05 -3.7598093e-05 2.4262807e-05)
(-3.3792083e-05 -3.878e-05 9.2632049e-05)
(-5.6523956e-05 4.3827287e-05 0.00013464324)
(-2.6577922e-05 -3.7768129e-05 9.1072147e-05)
(3.1836969e-05 -3.0132616e-05 3.1274209e-05)
(-1.9522896e-05 -3.7843135e-05 8.362425e-05)
(-3.2376177e-05 -3.038379e-05 9.4538726e-05)
(-3.5671065e-05 -3.2322052e-05 9.738085e-05)
(-3.6094897e-05 -3.3913902e-05 9.731566e-05)
(1.9716006e-05 -2.9993296e-05 2.7876109e-05)
(-2.7188363e-05 -3.3869951e-05 9.0400293e-05)
(-2.3380229e-05 -3.0341675e-05 8.8657643e-05)
(-4.0933606e-05 -2.8730189e-05 0.00010481084)
(-1.5211194e-05 -3.6459693e-05 7.2419344e-05)
(-4.3916178e-05 -3.0816624e-05 0.00010484198)
(-4.5700891e-05 -3.3054902e-05 0.00010675146)
(-7.1641687e-05 2.3832613e-05 0.00017274371)
(-7.3717204e-05 2.3277403e-05 0.00016055448)
(2.3266232e-05 -2.909821e-05 2.5813234e-05)
(-0.00016232297 7.3873678e-07 0.00026856056)
(-2.6289696e-05 -3.0506862e-05 8.1183334e-05)
(-1.9144148e-05 -3.3999424e-05 9.6649773e-05)
(2.4302748e-05 -2.2844023e-05 3.5491241e-05)
(-8.5188608e-05 2.1492245e-05 0.00017917132)
(-2.4947576e-05 -3.3168235e-05 9.1242629e-05)
(6.4283754e-06 -4.0568244e-05 5.2304107e-05)
(-5.1971781e-05 3.972137e-05 0.00011524755)
(2.4751957e-05 -2.3682016e-05 3.70697e-05)
(-4.0656218e-06 -3.7071427e-05 6.9327752e-05)
(2.2856596e-05 -4.2060052e-05 6.3311508e-05)
(-4.7531603e-05 -2.8298991e-05 0.00011234611)
(-3.481592e-05 3.6988694e-05 0.00010863352)
(-1.7110356e-05 -3.2594202e-05 8.7275408e-05)
(2.1412066e-05 -2.7108378e-05 3.2730107e-05)
(3.3001892e-05 -3.8118165e-05 6.7895179e-05)
(-7.2155596e-05 -3.2836943e-06 0.00010822247)
(-6.910598e-05 3.2366401e-05 0.00016665426)
(-9.755176e-06 -3.6239921e-05 7.4909971e-05)
(3.4445088e-05 -4.2420726e-05 6.1901748e-05)
(-5.2192449e-05 3.4489062e-05 0.0001223798)
(6.1374506e-07 -3.9750878e-05 8.2980078e-05)
(-0.00020736539 1.604312e-05 0.00034966622)
(-6.017314e-05 2.8469855e-05 0.00012255776)
(1.2891808e-05 -4.0669831e-05 5.462388e-05)
(4.3880928e-05 -2.7106101e-05 8.2750793e-05)
(-6.7860426e-05 9.5929535e-06 0.00012317137)
(2.313987e-05 -2.5402435e-05 3.1296696e-05)
(2.2405965e-05 -3.984951e-05 6.5501931e-05)
(1.433098e-05 -2.3724023e-05 3.6818926e-05)
(-7.0287721e-06 -3.4530656e-05 8.0072458e-05)
(3.0622718e-05 -3.9129901e-05 6.399717e-05)
(3.5856612e-05 -3.9717603e-05 5.0267389e-05)
(-0.00022042091 1.6031919e-05 0.00037172777)
(1.691027e-07 -3.7122431e-05 7.9937639e-05)
(3.3610156e-05 -3.9711294e-05 5.9936995e-05)
(9.9289913e-06 -3.648934e-05 7.1939816e-05)
(1.9967464e-06 -4.0522609e-05 7.6484022e-05)
(1.3260618e-05 -3.5019697e-05 6.0691072e-05)
(1.2681278e-05 -3.5550075e-05 8.669884e-05)
(-2.976669e-06 -3.1253159e-05 -2.0760655e-05)
(2.5631874e-05 -3.2327942e-05 9.6231932e-05)
(1.358224e-05 -3.9871647e-05 8.8466204e-05)
(2.992421e-05 -3.4523781e-05 7.0907409e-05)
(3.0233021e-05 -3.3775074e-05 7.5595688e-05)
(-1.3927975e-05 5.9594266e-05 3.2153041e-05)
(-1.5000144e-05 6.0577433e-05 3.8947778e-05)
(-4.3360869e-06 3.9840494e-05 7.9932246e-07)
(2.4088508e-05 -3.8715561e-05 9.7457648e-05)
(-1.0701286e-06 -3.2892521e-05 7.7544868e-05)
(1.765752e-05 -3.0877951e-05 9.0800437e-05)
(7.3932585e-06 -3.5313478e-05 0.00011531132)
(9.5749733e-06 5.7331115e-05 -1.0415179e-05)
(-2.0451976e-05 5.5551257e-05 6.7599927e-05)
(1.3294973e-05 5.3010146e-05 -1.7249915e-05)
(1.0829493e-05 -3.1044548e-05 0.00010043554)
(-3.0182023e-06 -0.00010502531 -7.7077776e-05)
(3.3817011e-05 -3.5108892e-05 6.6639147e-05)
(3.8892601e-05 -3.1051697e-05 5.69881e-05)
(3.0123613e-05 -3.2747345e-05 5.4480241e-05)
(3.9082412e-05 -2.6360291e-05 7.6338927e-05)
(1.7051876e-05 4.9918401e-05 -9.8971986e-06)
(4.8054446e-05 4.5149843e-05 7.3847496e-05)
(7.3673161e-06 -2.270869e-05 -1.4131991e-05)
(3.3442702e-05 -3.124088e-05 5.3413837e-05)
(4.5971777e-05 7.6527163e-05 -2.5688544e-05)
(4.0316183e-06 5.5111932e-05 -3.9854808e-06)
(-6.6611751e-05 2.4501256e-05 0.00015844017)
(6.0395203e-05 -7.9155589e-05 -0.00012805681)
(-9.6957645e-05 -5.1728158e-06 0.00016865019)
(-4.9593821e-05 3.5824812e-05 0.00010092732)
(-0.00012373442 1.2948961e-06 0.00020362756)
(-4.8656972e-05 3.4306884e-05 0.00011508133)
(-4.4778548e-05 3.5004608e-05 9.4552891e-05)
(-4.3111504e-05 3.1483932e-05 0.0001061642)
(-9.2446601e-05 2.7467365e-07 0.00015544232)
(-5.246044e-05 3.3745055e-05 0.00011342759)
(-0.00012797012 1.4172499e-05 0.00021309713)
(-0.0001183613 2.8318145e-06 0.00019596856)
(-5.5599881e-05 3.3654287e-05 0.00012954703)
(-0.00020191489 3.6077526e-06 0.00032627768)
(-5.7786458e-05 3.0782995e-05 0.00012723647)
(-6.0089143e-05 2.7388342e-05 0.00013117272)
(-4.4895873e-05 3.1712823e-05 9.5002207e-05)
(-0.00028724762 3.2069663e-05 0.00047106551)
(-0.00014048967 -3.4431253e-06 0.0002028454)
(-0.00010582787 8.8900362e-07 0.00017645659)
(-9.7417396e-05 1.5498747e-06 0.00016157692)
(4.1838478e-05 4.669118e-05 7.1180318e-05)
(4.6380145e-05 4.2450745e-05 7.4461706e-05)
(-0.00020992873 -9.5058933e-06 0.00034527088)
(-7.0325142e-05 1.1308295e-05 0.00011038091)
(-0.00017172036 -2.5287073e-06 0.00028193199)
(-0.00013193041 -9.3746334e-06 0.000167393)
(-0.00021077794 -6.2078142e-06 0.00036398149)
(-0.00011015524 5.7465432e-06 0.00018429026)
(-0.00019206655 -9.4971967e-06 0.00031403971)
(-0.00020936006 -5.0688403e-06 0.00033802472)
(-0.00019641676 -4.0529411e-06 0.00031360077)
(-0.00018323047 -2.3303049e-06 0.00029292336)
(-0.00018796706 -4.5788448e-07 0.000299378)
(-0.00021852135 -8.4758008e-06 0.00035331867)
(-0.00022015765 -7.2597327e-06 0.00035946808)
(-0.00022352722 -6.4236152e-06 0.0003550601)
(-0.00022678174 -7.0263955e-06 0.00036122561)
(-0.00019729905 -9.1893997e-06 0.00032018634)
(-0.00023408973 -2.856178e-06 0.00036914742)
(-0.00019381455 -4.4522882e-06 0.00030745848)
(1.5173224e-05 -1.0245097e-05 -1.1807465e-05)
(-0.00019758735 -6.3950896e-06 0.00031319119)
(-0.00020670809 -8.3160218e-06 0.00032556204)
(-0.0002072527 -4.6707178e-06 0.00036487356)
(-0.00016685148 -2.3200613e-06 0.00026676676)
(-0.00021673968 -8.0343472e-06 0.00033857265)
(-0.00016002364 -9.0645001e-06 0.00025639754)
(-0.00019814286 -7.677517e-06 0.00031437334)
(-0.0001883696 -9.1865026e-06 0.00029946065)
(-0.00020651446 -3.7322584e-06 0.00032148146)
(-0.0002219306 -1.4333943e-06 0.00034463378)
(3.0302628e-05 3.3496556e-05 -1.8138731e-05)
(-0.00016327085 -9.6235728e-06 0.00025891543)
(-0.00019541659 -1.188751e-05 0.00030940911)
(-0.00016022753 -7.7827938e-06 0.00024826627)
(-0.00015821323 3.3410012e-06 0.00025242061)
(-0.0002022169 -4.5194565e-06 0.00031153029)
(-0.00019434824 -8.6208768e-06 0.0003034183)
(-0.00020934431 -3.4265732e-06 0.00032446151)
(-0.00018795002 -8.7578809e-08 0.00028980073)
(-0.00019345704 -3.2131595e-06 0.00030110339)
(-0.00021256216 -5.6568065e-06 0.00033455439)
(2.9113485e-05 -2.2690123e-05 6.3866975e-05)
(-0.00018565229 -1.0212526e-05 0.0002912507)
(-3.4697669e-05 -9.8120512e-05 -2.0966438e-05)
(-0.00022682877 -1.5945697e-05 0.00035494512)
(-0.00022174264 -5.2962618e-06 0.00034452618)