/*--------------------------------*- C++ -*----------------------------------*\
  =========                 |
  \\      /  F ield         | OpenFOAM: The Open Source CFD Toolbox
   \\    /   O peration     | Website:  https://openfoam.org
    \\  /    A nd           | Version:  11
     \\/     M anipulation  |
\*---------------------------------------------------------------------------*/
FoamFile
{
    format      ascii;
    class       volVectorField;
    location    "10000";
    object      wallShearStress;
}
// * * * * * * * * * * * * * * * * * * * * * * * * * * * * * * * * * * * * * //

dimensions      [0 2 -2 0 0 0 0];

internalField   uniform (0 0 0);

boundaryField
{
    wall-fluid_domain
    {
        type            calculated;
        value           nonuniform List<vector> 
42113
(
(-3.6964559e-05 -1.2760479e-05 5.0810399e-05)
(-7.9199117e-06 -9.5638698e-06 1.5192157e-05)
(-2.8559505e-05 -1.6418149e-05 4.0441885e-05)
(-2.6369837e-05 1.0223802e-05 5.7088783e-05)
(-2.7940418e-05 -9.5890156e-06 3.2790234e-05)
(-1.8614506e-05 -1.1049838e-05 2.0975269e-05)
(-3.3290287e-05 -9.1222373e-06 3.8366714e-05)
(-6.8091871e-06 1.183074e-05 3.1125996e-05)
(-8.9426952e-06 -8.3367857e-06 1.3056664e-05)
(-2.9390321e-05 -5.9001897e-06 2.6614866e-05)
(-3.702646e-05 -8.6999057e-06 4.2544554e-05)
(-3.6298343e-05 -1.4783839e-05 4.5852065e-05)
(-7.8526922e-05 -1.9209307e-05 8.1197074e-05)
(-2.1855693e-05 -8.8087745e-06 2.2772143e-05)
(-3.6298055e-05 -9.4781198e-06 4.018039e-05)
(-1.1882119e-05 -1.4956693e-05 1.8481025e-05)
(-9.9932502e-06 -1.303853e-05 1.7254658e-05)
(-1.2884509e-05 -1.1203028e-05 1.3173678e-05)
(-2.0119902e-05 -8.6680432e-06 1.4221783e-05)
(-2.2462699e-05 -1.2347776e-05 2.1390056e-05)
(-5.9560034e-05 3.1822331e-06 7.231001e-05)
(-4.7297234e-05 -2.4604157e-07 9.1072281e-05)
(-9.5251535e-05 -1.454789e-05 7.953078e-05)
(-8.586939e-06 -1.2197194e-05 2.1365179e-05)
(-7.1753254e-06 -8.6944497e-06 1.1765635e-05)
(-3.0317235e-05 7.3531503e-06 5.40117e-05)
(-3.4085785e-05 -1.1258702e-05 3.3723129e-05)
(-5.0049044e-05 1.7197359e-06 9.4030221e-05)
(-1.7532564e-05 -1.3400855e-05 1.2995942e-05)
(-1.3442274e-05 -1.0686881e-05 1.4970381e-05)
(-2.3568691e-05 -9.2347355e-06 1.9528351e-05)
(-7.3500327e-06 -7.2218036e-06 1.0067076e-05)
(-4.9402224e-05 1.0356857e-06 9.5913537e-05)
(-3.2406454e-05 -6.6534899e-06 4.3105628e-05)
(-8.4790885e-06 -9.294998e-06 1.2713421e-05)
(-1.1026914e-05 -1.0813608e-05 1.8707578e-05)
(-7.2910337e-05 -1.6225604e-05 5.0544135e-05)
(-2.8905974e-05 3.7806633e-06 5.2280185e-05)
(-9.9846672e-06 -1.122999e-05 1.3698065e-05)
(-1.8693572e-05 -9.5203643e-06 1.6019828e-05)
(-1.3172624e-05 -6.2387858e-06 6.2851887e-06)
(-4.1925203e-05 4.7363907e-06 8.3513898e-05)
(-9.9389571e-06 -8.7456418e-06 1.2679845e-05)
(-9.1390547e-05 -1.4578811e-06 0.00010642155)
(-3.7858575e-05 -1.0284271e-05 4.4332675e-05)
(-1.8974507e-05 -1.2908924e-05 2.6072342e-05)
(-1.1014403e-05 -8.4028526e-06 6.7981345e-06)
(-1.0329773e-05 -1.0149182e-05 1.2059963e-05)
(-9.9383365e-06 -1.0322436e-05 1.2539164e-05)
(-1.2899833e-05 -1.2109012e-05 1.3001959e-05)
(-9.6346238e-05 -7.6412809e-06 0.00011680945)
(-1.8214372e-05 -1.2295709e-05 2.2331819e-05)
(-9.5367409e-06 -9.6072743e-06 1.5833028e-05)
(-7.8007442e-05 -2.139516e-05 8.6717112e-05)
(-4.7799921e-05 1.2384558e-05 9.9309188e-05)
(-9.6562368e-06 -1.0035221e-05 1.2773379e-05)
(-3.3832113e-05 1.434477e-05 3.9356836e-05)
(-7.1584155e-05 -5.5602841e-06 0.00011856902)
(-1.1711614e-05 -7.0809984e-06 4.0415848e-06)
(-1.2605156e-05 -1.4185491e-05 1.2280597e-05)
(-4.0614347e-05 -3.2762222e-06 6.6420024e-05)
(-8.8937913e-06 -1.1290164e-05 1.4426923e-05)
(-1.8468504e-05 -1.5396247e-05 2.6121856e-05)
(-3.6558803e-06 -9.9627006e-06 1.3847008e-05)
(-9.8754177e-06 -1.1551885e-05 1.2234825e-05)
(-5.3286387e-05 1.5210823e-06 8.8569358e-05)
(-9.3217113e-05 -3.4604342e-06 0.00015036668)
(-6.33907e-06 -8.9583391e-06 8.2183344e-06)
(-7.3020516e-06 -7.8703106e-06 9.2803513e-06)
(-4.5212255e-05 6.722977e-06 8.6094277e-05)
(-4.8026143e-05 3.371229e-06 8.7591951e-05)
(-4.1673629e-05 -9.6832176e-07 6.8775676e-05)
(-1.0053657e-05 -1.1942914e-05 5.8860598e-06)
(-9.4428965e-06 -9.4727554e-06 1.1562843e-05)
(-7.4965424e-06 -9.8369472e-06 6.2233824e-06)
(-5.2927615e-05 -2.4716768e-06 8.7082991e-05)
(-4.3305314e-05 -3.044972e-06 7.0417097e-05)
(1.3018804e-05 1.090072e-05 -1.8586476e-05)
(-8.1366821e-06 -1.2344887e-05 1.027914e-05)
(-8.6272214e-05 -3.5125649e-06 0.00010290901)
(-8.775066e-06 -1.0889689e-05 1.3645524e-05)
(-7.9706792e-06 6.413351e-06 2.3575951e-05)
(-5.405344e-05 2.9329064e-07 9.8892235e-05)
(-7.5917794e-06 -1.0604493e-05 7.9101183e-06)
(2.4030592e-05 -2.0188407e-05 -3.9462304e-05)
(-6.6950931e-06 1.2252991e-05 3.6742777e-05)
(-2.9961478e-05 -7.2696104e-06 4.229787e-05)
(1.847387e-05 -2.5431086e-05 -4.1447989e-05)
(-5.1634576e-06 -1.1606047e-05 9.1694974e-06)
(-3.6634274e-05 -1.9950712e-06 5.6823965e-05)
(-1.6083743e-05 1.4255848e-05 4.3651365e-05)
(-1.8897831e-05 1.2695216e-05 4.5961479e-05)
(-8.8200645e-05 -2.2674668e-05 7.1749523e-05)
(-3.7272785e-05 -1.4128242e-05 5.0519197e-05)
(-1.6517139e-05 1.03899e-05 4.7395697e-05)
(-9.5667888e-06 -1.0911126e-05 1.7647154e-05)
(-1.150619e-05 1.5669248e-05 4.4671554e-05)
(-0.00015086836 -7.177467e-07 0.00020185565)
(-3.4783777e-05 -8.9709169e-06 4.0652264e-05)
(-7.7705172e-06 -7.4278433e-06 1.0146859e-05)
(-8.3220777e-05 1.5447977e-06 0.00015618456)
(-7.8162317e-05 -3.2909607e-06 0.00012495986)
(-5.1010186e-06 -9.7381732e-06 4.4949781e-06)
(-9.5624407e-06 -1.1178581e-05 9.6458582e-06)
(-7.3875102e-05 -2.1819146e-05 5.7556445e-05)
(-8.8582196e-05 2.3662981e-07 0.00014393655)
(-8.4793913e-06 1.3150601e-05 2.6993207e-05)
(-5.4284037e-05 -4.170762e-06 7.2486987e-05)
(-7.1159523e-06 -1.1456879e-05 5.7514097e-06)
(-9.4336146e-06 -1.1971126e-05 8.0499721e-06)
(-0.0001137762 -2.041625e-06 0.00018759802)
(-8.8514455e-05 2.9379446e-06 0.00013541821)
(1.2780306e-05 1.570022e-05 -2.3409259e-05)
(-5.6000051e-05 -3.2170539e-06 7.2665966e-05)
(-0.00013124876 -2.747493e-06 0.00022227)
(-6.6252339e-05 -6.5738171e-06 8.6819338e-05)
(-6.2327259e-05 -2.1263918e-07 8.1680432e-05)
(-6.2707492e-05 -7.5961663e-06 8.4974614e-05)
(-9.4874411e-05 -5.8864196e-06 7.1384665e-05)
(-0.00013349582 -1.529998e-06 0.00022535616)
(-5.179551e-06 -1.0829028e-05 7.394767e-06)
(-6.1073355e-05 8.7127013e-06 6.7217076e-05)
(-3.9502754e-05 -9.5034217e-06 4.7719268e-05)
(-5.5890977e-05 -4.960014e-06 7.0643089e-05)
(-6.3431404e-05 -3.0543735e-06 8.498483e-05)
(-3.6587442e-06 -1.0001096e-05 4.330443e-06)
(-8.3820686e-05 6.5617531e-07 0.00013612143)
(-0.00010151419 -4.6580059e-06 0.00017231222)
(-0.00010681261 -5.9953368e-06 0.00018104315)
(-6.3473376e-05 -3.2835295e-06 7.7497462e-05)
(-5.6213189e-05 -8.8018074e-06 6.9978869e-05)
(-9.8268169e-06 -1.1300593e-05 1.7343149e-05)
(-4.5743387e-05 -6.1577508e-06 5.8888054e-05)
(-5.0803642e-05 -5.0843282e-06 6.7769299e-05)
(-8.8965921e-05 -1.0803665e-05 0.00010120757)
(-0.00010235813 -7.6509777e-06 0.000162341)
(-3.1213914e-05 -1.2598658e-05 4.9788886e-05)
(-0.00011379893 -5.3691534e-06 0.00017878858)
(-6.7360701e-06 -1.0041144e-05 1.4775432e-05)
(-9.2742162e-05 4.0223877e-06 0.00016485173)
(-5.224981e-05 -7.2220321e-07 8.5087842e-05)
(-8.9703006e-06 -1.3101096e-05 1.9539385e-05)
(-9.3375302e-05 -6.714692e-06 0.00016515905)
(-4.3721933e-05 -8.9981182e-06 4.7040977e-05)
(-9.2724307e-06 1.3574584e-05 4.8158966e-05)
(-5.7612407e-05 4.784676e-07 9.9286863e-05)
(-3.452146e-05 -7.2245236e-06 4.5258509e-05)
(-2.1693413e-05 8.9856207e-06 4.8940152e-05)
(2.2112227e-05 1.8402778e-05 -2.9141709e-05)
(-0.00010638628 2.7052129e-06 0.00017059704)
(-7.9275988e-05 -3.1098853e-06 9.7384462e-05)
(2.1596669e-05 1.5336962e-05 -2.248966e-05)
(-0.00011016765 2.3333234e-06 0.00018312647)
(-4.9796057e-05 3.2679906e-06 9.2036686e-05)
(-0.00010083231 7.9416802e-06 0.00017214086)
(-0.00014775919 -3.4751526e-06 0.00019506332)
(-5.8450028e-05 -3.535434e-07 9.753523e-05)
(-5.0045663e-05 -1.4851267e-06 7.8472679e-05)
(-0.00010820123 -3.4136205e-06 0.00017614642)
(-5.9666114e-05 -2.6858348e-06 9.6843175e-05)
(-4.9658717e-05 -2.0172568e-06 6.7989388e-05)
(-5.3656033e-05 -2.304892e-06 8.0883879e-05)
(-5.7362822e-05 -5.3023802e-06 0.00010527595)
(-5.015372e-05 -8.0244986e-06 7.9929617e-05)
(-6.3996428e-05 -3.5642006e-08 0.00010031589)
(-4.6423409e-05 -1.8864793e-06 7.2135903e-05)
(-5.5666048e-05 4.487764e-06 8.7025633e-05)
(-2.0623571e-05 1.2890345e-05 4.9708635e-05)
(-9.3856136e-05 2.8191294e-06 0.00014413395)
(-5.2992615e-05 3.6026905e-06 7.800462e-05)
(-4.8188297e-05 -7.3873967e-06 7.7423523e-05)
(-4.9505685e-05 5.6261416e-06 7.4610228e-05)
(-6.3421836e-05 -2.9047477e-07 0.00010394472)
(-1.4323439e-05 1.4800565e-05 4.2137379e-05)
(-4.5712662e-05 -3.693136e-06 7.4537528e-05)
(-5.3623719e-05 -1.6759518e-06 8.1650569e-05)
(-6.4930553e-05 -2.2931666e-06 0.00010660498)
(-7.1484037e-05 -3.9794408e-07 0.00011155689)
(-3.5831633e-06 -1.3985873e-05 -1.9980274e-05)
(-4.905447e-05 2.5679896e-06 7.7158809e-05)
(-7.166191e-05 9.7600196e-06 8.5824846e-05)
(-1.1235433e-05 1.2832569e-05 4.4265915e-05)
(-8.8472719e-05 -7.3907722e-08 0.0001349638)
(-7.5370695e-05 -5.3772652e-06 0.0001155722)
(-5.9798088e-05 -2.9284398e-07 9.4470248e-05)
(-3.4952667e-05 -6.7241717e-06 3.7318486e-05)
(-1.447466e-06 -6.989796e-06 1.2484587e-05)
(-5.5556633e-05 -6.4114602e-06 8.69763e-05)
(-6.6850272e-06 -1.0143542e-05 1.068303e-05)
(-3.7642689e-05 -2.5565496e-06 5.8981527e-05)
(-6.8032463e-06 -1.0935027e-05 2.1769545e-05)
(-6.1880549e-05 -3.088461e-06 9.5193793e-05)
(-2.4175538e-05 1.0316183e-05 4.9132349e-05)
(-4.1851239e-06 -8.8419519e-06 1.0774555e-05)
(-7.4945553e-05 -5.9657441e-06 0.00011541208)
(-5.6516343e-05 6.1405576e-06 9.6999845e-05)
(-4.3578758e-05 3.4695702e-07 6.8181445e-05)
(-6.1818641e-05 -9.0646436e-06 7.5757005e-05)
(-0.00010058094 3.2097289e-06 0.00016288683)
(-4.6067784e-05 -7.7080386e-07 7.5262578e-05)
(-4.0251339e-06 -1.1116186e-05 1.1413826e-05)
(-7.1625462e-05 -1.5668417e-07 0.00011444514)
(-6.5855226e-05 -2.6232174e-06 0.00010794431)
(-0.00013231303 -8.1646629e-07 0.0002220461)
(-0.00012003227 1.1901277e-06 0.00022154146)
(-4.3280204e-05 -1.7137136e-07 6.4526257e-05)
(-7.7373278e-05 -4.8190322e-06 8.8923365e-05)
(-2.1271214e-05 7.3723678e-06 5.1965224e-05)
(5.6297195e-06 -4.2273489e-06 -5.5052406e-06)
(-1.0356547e-05 1.4429064e-05 3.3713948e-05)
(-0.00012295782 5.2412328e-06 0.00020443692)
(-9.5243754e-05 -1.0531704e-05 0.00015843414)
(-9.4244053e-05 -8.4318945e-06 0.0001452923)
(-7.5179658e-06 -9.186502e-06 1.7239222e-05)
(-9.4519084e-06 -1.131565e-05 1.9863067e-05)
(-7.7891344e-05 3.5042124e-07 0.00012310727)
(2.1181786e-05 -2.4327095e-05 -3.7824644e-05)
(-1.1955572e-05 -1.0104044e-05 1.536121e-05)
(-7.967763e-05 -8.0706667e-06 0.00013259822)
(-3.7174545e-06 -9.7459723e-06 7.8686492e-06)
(-8.09767e-06 -9.6545164e-06 1.5406819e-05)
(-0.00016703965 5.342182e-06 0.00029581166)
(7.3353158e-06 1.1405648e-05 -1.7357867e-05)
(-1.7909045e-05 1.2222096e-05 4.5494227e-05)
(-0.0001011276 -1.3657402e-06 0.00016679042)
(-2.8698017e-05 -1.4327927e-05 2.3575495e-05)
(-7.3655104e-05 -6.8293304e-06 0.00012752492)
(-7.4291912e-06 -7.626481e-06 1.0429164e-05)
(-2.7378413e-05 -1.4858869e-05 2.4013297e-05)
(-1.3904335e-05 1.4635699e-05 4.1103953e-05)
(-2.5033935e-05 -1.8123118e-05 1.9037852e-05)
(-7.3646408e-05 -2.1573926e-06 0.00012151049)
(-6.8774068e-05 -5.5878532e-08 0.00011301424)
(-1.1489474e-05 1.3730178e-05 3.2238415e-05)
(-7.3556368e-05 -2.3600272e-06 0.00011665175)
(-7.9830999e-05 -2.1465723e-05 5.1490892e-05)
(-7.4863098e-05 -2.1757966e-06 0.0001200241)
(-1.2164829e-05 1.4176284e-05 3.3968398e-05)
(-6.1158596e-05 -2.4911494e-05 6.9213522e-05)
(-0.00011269894 -7.8181588e-06 0.00017718742)
(-3.3995531e-05 1.5366064e-06 6.4992316e-05)
(-0.00012110833 3.4139124e-06 0.00020374446)
(-9.4302046e-05 5.0670957e-06 0.00012758816)
(-0.00010592793 -5.2139209e-06 0.0001615624)
(-5.3652317e-05 -1.982549e-05 5.9519824e-05)
(-8.3542722e-06 -1.154481e-05 1.6555341e-05)
(-3.732925e-05 1.3209736e-06 6.2711842e-05)
(-2.4003305e-05 7.3663689e-06 5.2215887e-05)
(-8.3190776e-06 -9.4560573e-06 1.4577616e-05)
(-7.4089884e-05 6.0347058e-07 0.00011897325)
(-5.7428949e-06 -5.8681675e-06 1.0771688e-05)
(-2.0578219e-05 9.1043817e-06 4.4450308e-05)
(3.427974e-05 -1.2492542e-06 -4.8116462e-05)
(-2.4736922e-05 9.350726e-06 4.6720818e-05)
(-0.0001049485 -5.42918e-06 0.0001744827)
(-3.2256487e-05 1.0730417e-06 5.5923761e-05)
(-4.5523796e-06 -1.0499609e-05 1.2715594e-05)
(-2.5628537e-05 7.3465245e-06 5.5048362e-05)
(-7.179747e-05 -4.4224551e-06 0.00010793341)
(-2.0231282e-05 8.2880472e-06 4.7298116e-05)
(-9.1352326e-05 -1.7423879e-05 6.7855713e-05)
(-6.6625088e-06 -8.1487081e-06 8.2354008e-06)
(-8.2744873e-05 -5.6189416e-06 0.00012616081)
(-7.6909685e-06 1.2462985e-05 3.6473037e-05)
(-6.3482761e-06 -8.79587e-06 7.4589608e-06)
(-9.8273815e-05 -3.0792369e-06 0.00014493653)
(-2.0381233e-05 -1.2738932e-05 1.1418343e-05)
(-1.6378697e-05 9.3283187e-06 4.4202227e-05)
(1.1252454e-05 8.6749913e-06 -1.6466262e-05)
(-0.00017397906 7.9715326e-06 0.00030105577)
(-1.8881462e-05 1.1785331e-05 4.5443307e-05)
(-1.7249865e-05 -1.4694465e-05 6.5275488e-06)
(-0.00010163323 5.8674766e-08 0.00017490774)
(1.3319146e-05 6.182519e-06 -1.3920479e-05)
(-6.8064821e-06 -1.0310834e-05 9.1170748e-06)
(7.3855136e-06 1.5985526e-06 -8.8424021e-06)
(-0.00014190951 7.0666348e-06 0.0001584885)
(-8.386975e-06 -7.9120345e-06 1.1797064e-05)
(-0.00014491183 6.0751568e-06 0.00015059145)
(-4.8945598e-05 -5.301955e-06 6.545799e-05)
(-0.00012975187 -1.3686669e-05 0.00015574684)
(-0.00010127366 -1.0335953e-05 0.00012670239)
(-6.9049807e-06 -9.5266844e-06 1.5987765e-05)
(-6.8643e-06 -1.4298068e-05 9.5039832e-06)
(-9.0975939e-06 -1.7368711e-05 1.0616441e-05)
(-9.7795868e-06 1.4198416e-05 2.8967609e-05)
(-2.6918996e-06 -9.5833041e-06 4.7654111e-06)
(-7.7419158e-06 -1.2645488e-05 8.0090536e-06)
(-0.00013286387 -3.5293133e-07 0.00022759722)
(-1.1313383e-05 1.2772362e-05 2.8660852e-05)
(-1.1579136e-05 1.4113188e-05 3.3196151e-05)
(-1.1709022e-05 1.3063425e-05 3.0964349e-05)
(-7.8528736e-06 1.1903753e-05 2.5084238e-05)
(-8.348762e-06 1.2765177e-05 2.4437199e-05)
(-3.9494847e-05 -1.3972594e-05 5.7271639e-05)
(-1.2839791e-05 1.591379e-05 3.2922101e-05)
(-8.5921612e-06 1.3276966e-05 2.5332085e-05)
(-9.3142806e-05 -7.5290247e-06 9.4448411e-05)
(-6.8965166e-05 8.1820551e-07 0.00011440978)
(-7.8318733e-06 -1.0523725e-05 1.5146861e-05)
(-4.2567771e-06 -1.0360849e-05 1.1312601e-05)
(-4.2178938e-05 -7.6116942e-06 5.2206529e-05)
(-6.591903e-06 -9.8266794e-06 1.6527509e-05)
(-9.4583922e-05 -4.1707442e-06 0.00010344664)
(-0.00016728765 9.8340722e-06 0.00028480746)
(6.6086749e-06 2.5127575e-05 -6.1175099e-06)
(-5.1733357e-06 -1.0726528e-05 1.5270854e-05)
(-7.8554033e-06 -1.1614964e-05 1.1894047e-05)
(-0.00011170205 -3.3908999e-06 0.00016567219)
(1.3226299e-06 2.2353138e-05 -4.315476e-06)
(-5.1147958e-06 -7.9544964e-06 9.6964692e-06)
(-9.5836616e-05 -7.5893072e-06 0.00014423026)
(6.4748628e-07 2.6857923e-05 -1.1193487e-06)
(-4.5120626e-06 -1.0353785e-05 1.7069099e-05)
(-4.9180229e-06 -9.3147925e-06 1.0947798e-05)
(-7.3402743e-05 -5.1561791e-06 7.8580395e-05)
(-4.4582341e-06 -9.4508216e-06 1.1151014e-05)
(-7.29478e-05 -9.0876966e-06 8.3375293e-05)
(-7.7275367e-07 -1.1469255e-05 1.0878262e-05)
(-0.00011766543 -6.8648135e-06 0.00019164019)
(-4.6993847e-07 -8.245471e-06 9.5231454e-06)
(-8.2445204e-06 -1.0255101e-05 2.0823661e-05)
(-5.5372399e-06 -9.0668494e-06 1.0157103e-05)
(-4.8237244e-06 -8.5845316e-06 8.3805462e-06)
(-1.76457e-06 -8.0478032e-06 8.4828673e-06)
(-0.00011964003 -1.5693448e-05 0.00010100584)
(-9.3182562e-06 -1.0572255e-05 1.9217219e-05)
(-6.7373952e-06 -8.5463209e-06 5.7460918e-06)
(-2.7502286e-06 -6.4733965e-06 6.2009844e-06)
(-3.0264185e-06 -7.4420761e-06 6.4181214e-06)
(-3.3064899e-06 -7.0293757e-06 7.2712064e-06)
(-9.2497358e-05 2.9846777e-06 0.00016333993)
(-9.7215448e-05 -7.7965702e-06 0.0001651857)
(-1.4709534e-07 -4.4566308e-06 6.9250728e-06)
(-0.0001108209 1.6597804e-06 0.00018632834)
(-9.5029906e-07 -4.4555129e-06 7.2252682e-06)
(-1.5471425e-06 -7.7209579e-06 5.9040119e-06)
(-5.0410997e-06 -1.1118835e-05 4.1139574e-06)
(-2.4907054e-06 -5.0342445e-06 4.3251163e-06)
(-1.1500011e-06 -5.3712978e-06 4.6114939e-06)
(-4.5000573e-06 -5.7661935e-06 3.788533e-06)
(-0.00010430408 2.9241072e-06 0.00016732671)
(-7.7939641e-07 -7.8130203e-06 4.6260645e-07)
(-7.2602122e-05 -2.5910289e-06 9.1011561e-05)
(-6.453262e-06 -8.8433706e-06 1.8838443e-05)
(-5.6693314e-05 -5.039473e-06 7.2912248e-05)
(1.1070922e-06 -5.8453901e-06 5.6570657e-06)
(-3.7550171e-06 -8.077552e-06 6.5994589e-06)
(-1.2472e-06 -8.5260369e-06 1.3723978e-06)
(-1.0055304e-06 -8.2923526e-06 8.2912197e-06)
(6.0161835e-07 -5.0845338e-06 1.2359587e-06)
(4.0992623e-07 -6.5647843e-06 -1.4279709e-07)
(-1.6584994e-06 -9.5069747e-06 2.8025194e-06)
(-3.9688461e-05 -5.3196468e-06 4.1960477e-05)
(3.0791983e-06 -8.3142139e-06 4.9498398e-07)
(5.5811124e-07 -5.6374273e-06 6.0391471e-07)
(-1.2735458e-06 -5.0680344e-06 5.134442e-06)
(-1.4890308e-06 -9.5093016e-06 6.1666026e-06)
(-6.3475962e-05 -1.803813e-05 6.2817374e-05)
(-3.1495655e-06 -4.5306614e-06 5.8551322e-06)
(-1.1612234e-06 -6.1520361e-06 3.647229e-06)
(-0.0001280325 -2.4342213e-06 0.00018787137)
(3.5373654e-06 -8.5848042e-06 -1.6563889e-06)
(3.1230177e-06 -8.4315063e-06 -3.1976306e-06)
(1.7386941e-06 -4.5039224e-06 8.4956264e-07)
(-3.8247893e-05 -9.493024e-06 5.0189404e-05)
(1.9330366e-06 -7.6046657e-06 3.2936291e-06)
(1.0967157e-06 -8.9552648e-06 2.5414497e-06)
(-9.1693535e-05 3.7080397e-06 0.00013267947)
(-0.0001124797 -7.9344312e-06 0.00017311521)
(-4.6202868e-07 -5.2684846e-06 2.9674204e-06)
(-4.9575041e-06 -8.8158805e-06 1.5555447e-05)
(-1.7179419e-06 -5.0193538e-06 4.5775831e-06)
(-6.081451e-06 -8.5528203e-06 1.4323557e-05)
(4.948289e-07 -5.1699896e-06 6.759158e-07)
(8.3792113e-07 -3.6288125e-06 4.2989769e-06)
(5.414139e-06 -3.3433167e-06 -6.5903991e-06)
(-7.3533367e-06 -9.8639547e-06 1.943149e-05)
(-1.8241425e-06 -2.9840339e-06 5.9336277e-06)
(-6.3879548e-06 -1.1100066e-05 2.5150646e-05)
(-8.4324646e-07 -3.1284067e-06 4.9328633e-06)
(5.1408684e-06 -7.8552728e-06 -4.6100498e-06)
(5.3763924e-06 -8.466919e-06 -1.0437219e-06)
(-2.2261089e-06 -9.5315312e-06 6.5927248e-06)
(-1.6423117e-06 -7.5375439e-06 1.2905568e-05)
(3.1078683e-06 -6.3795573e-06 -2.7270956e-06)
(-9.4178717e-06 -2.6960658e-06 1.2446066e-05)
(-3.4873368e-06 -3.7475851e-06 1.1427936e-05)
(3.2437046e-06 -1.0481699e-05 -2.2107714e-06)
(-7.4032279e-06 -4.1958581e-08 1.1787998e-05)
(-1.7969333e-06 -8.5777794e-06 -4.5496373e-08)
(-1.7877084e-05 2.4731306e-06 2.4635789e-05)
(-8.943162e-06 -8.928708e-07 1.3877974e-05)
(1.3117629e-06 -6.5075607e-06 -3.7846334e-06)
(-2.4754396e-06 -8.8926967e-06 7.917948e-06)
(7.3982643e-06 -6.0925662e-06 -3.1055641e-06)
(2.3668972e-05 1.821035e-05 -2.9967033e-05)
(-1.6745968e-05 1.7335235e-06 2.7751439e-05)
(-5.8014936e-05 -6.1141855e-07 6.6394894e-05)
(-0.00010903717 -3.9628599e-07 0.00016662758)
(4.5134397e-06 -1.0905498e-05 -4.0146475e-06)
(3.4287683e-06 -1.0644836e-05 -6.3213775e-06)
(-1.4643759e-05 -1.8069621e-05 -1.6088169e-06)
(-1.3429696e-05 -2.2066285e-05 3.2498751e-06)
(-5.5244391e-05 -9.0023786e-06 6.8978353e-05)
(-1.0619646e-05 2.7817653e-07 1.8446565e-05)
(-3.2341835e-06 -8.6303059e-06 1.9217895e-06)
(2.8623057e-06 -1.1826614e-05 2.1486316e-06)
(-5.661728e-06 -7.8602137e-06 1.5456477e-05)
(2.0574879e-06 -1.0399853e-05 3.5262563e-06)
(-5.2320426e-06 -7.9613573e-06 1.4824634e-05)
(-3.0132164e-05 3.8881251e-06 3.7803825e-05)
(-2.1248222e-05 -2.0329133e-07 2.5297617e-05)
(-3.5671437e-05 6.8867475e-06 4.8569886e-05)
(-3.2403142e-05 7.2316929e-06 4.5557631e-05)
(-5.0104919e-05 -4.6590548e-06 7.8153044e-05)
(5.3525039e-06 -8.5207301e-06 -3.1233622e-06)
(-0.00012595645 -7.7350236e-06 0.0002106508)
(-1.9303302e-05 6.8897464e-07 1.8972007e-05)
(7.6158192e-06 -1.0453896e-05 -3.1744848e-06)
(6.8079501e-06 -8.7473175e-06 -5.0065238e-06)
(-2.6809778e-05 3.3214499e-06 3.0674224e-05)
(1.2504316e-05 1.1359906e-05 -2.1782583e-05)
(-6.4390637e-07 -3.329893e-06 1.5051392e-05)
(-3.3290819e-06 -1.2056974e-05 5.1223759e-08)
(-1.3526759e-05 -1.5545715e-05 -2.5488865e-06)
(-2.6607293e-06 -6.6003437e-06 1.1022199e-05)
(-1.8288236e-05 9.6798019e-06 4.0320312e-05)
(-2.2343391e-05 5.8457977e-06 5.2757333e-05)
(-3.9337013e-05 4.9975811e-06 4.6904826e-05)
(2.2085337e-06 -4.2841141e-06 5.9448091e-07)
(-7.5421369e-06 -9.3934095e-06 1.8009784e-05)
(-8.7874016e-06 -7.9633902e-06 3.1252919e-06)
(-3.4150851e-05 -7.7514654e-07 5.9096465e-05)
(-2.879461e-05 2.0169364e-06 3.0562765e-05)
(-9.8660133e-05 1.9166582e-06 0.0001581695)
(-7.8941912e-05 -2.8238341e-06 0.00013787354)
(-2.0345901e-05 4.5112694e-06 3.2711191e-05)
(-0.00010341182 -7.7454515e-06 0.00013435593)
(-1.1358896e-05 1.3922011e-05 2.870142e-05)
(-7.6648346e-05 3.4038186e-07 0.0001322382)
(-9.2935725e-06 1.2684953e-05 3.0234352e-05)
(4.5490343e-06 -9.0689812e-06 -4.7600166e-06)
(-8.0641128e-05 1.8406799e-06 0.00013470119)
(-8.1815659e-06 -6.6217518e-06 1.2323153e-05)
(-6.4060076e-05 -1.4219345e-06 0.0001141783)
(-4.2393401e-05 7.6587203e-06 5.2932826e-05)
(-1.1484549e-05 -2.1815655e-07 1.3831461e-05)
(-9.7752e-05 1.8497512e-06 0.00016522839)
(6.2126078e-06 -1.9308066e-06 -3.9196093e-06)
(-8.9103907e-05 -4.3891086e-06 0.00013423356)
(-6.1866701e-06 -3.4476465e-06 1.3761583e-05)
(-3.1717624e-05 5.7869315e-06 3.8206895e-05)
(-6.0505153e-06 -6.9498222e-06 2.2945115e-05)
(-8.006102e-05 -7.9873156e-06 0.00012491546)
(-8.5687282e-06 -7.5147054e-06 2.1230541e-05)
(-3.366408e-05 4.3896307e-06 3.4057042e-05)
(-2.4327908e-05 3.2585912e-06 3.9023871e-05)
(-6.5481638e-05 -9.1139828e-07 0.00011002065)
(-3.1066812e-05 3.775541e-07 3.104717e-05)
(1.2892484e-05 9.214974e-06 -2.4367074e-05)
(-4.3220887e-05 4.2742943e-06 5.2169726e-05)
(-0.00015154977 1.5603206e-05 0.00025766144)
(-8.9870297e-05 -1.3720108e-05 9.5697666e-05)
(-5.7576157e-05 1.828107e-06 0.00010220117)
(-7.4392223e-05 -1.3128766e-06 0.00012276352)
(-4.1189279e-06 -4.3740851e-06 1.3468651e-05)
(-3.4158985e-05 2.0700324e-06 2.9330345e-05)
(-4.1521754e-05 7.9074573e-06 4.9741444e-05)
(-8.1197166e-05 -5.5407133e-06 0.00012443961)
(-6.6233748e-05 3.577722e-06 0.000118428)
(-6.9448236e-05 5.8869107e-06 0.00011592759)
(-8.9874219e-05 -5.7223816e-06 0.000143013)
(-7.4371524e-06 -4.1262101e-06 1.7435749e-05)
(-5.0001767e-05 1.1101778e-05 6.6159127e-05)
(-4.1781642e-05 6.9030903e-06 5.2712005e-05)
(-3.7568805e-05 6.9010207e-06 5.1534664e-05)
(-5.1011037e-05 5.1422865e-06 6.1501242e-05)
(-4.3121172e-05 3.8158254e-06 4.7946047e-05)
(-7.5198222e-06 -1.3382988e-06 2.1886484e-05)
(-1.6412682e-05 2.7766692e-06 3.2871834e-05)
(-1.1115801e-05 -2.37522e-06 2.3179167e-05)
(-8.2671324e-06 -5.804635e-06 2.2207858e-05)
(-1.0614341e-05 -3.7698667e-06 2.1099852e-05)
(-5.8585394e-05 1.0361741e-05 7.2061378e-05)
(-3.013151e-05 7.3554733e-06 4.9122458e-05)
(-1.4016152e-05 1.6922857e-06 3.4278941e-05)
(-2.6622924e-05 4.6884709e-06 4.4053704e-05)
(-5.9604757e-05 7.9337964e-06 6.9996519e-05)
(3.2783439e-06 -3.3153046e-06 -1.9129952e-06)
(-4.2026576e-05 1.0979825e-05 6.1657845e-05)
(-1.2813565e-05 4.8652179e-07 1.3113065e-05)
(-1.4433119e-05 1.6271555e-07 3.0653212e-05)
(-7.647314e-05 -1.7421296e-05 7.81899e-05)
(-2.1827091e-05 4.0583528e-06 4.297914e-05)
(-2.050523e-05 6.5693106e-06 2.2629523e-05)
(-3.3294604e-05 8.1358447e-06 5.58114e-05)
(-2.660001e-05 7.6409025e-06 4.7968541e-05)
(-1.4740551e-05 2.5617979e-06 3.4980483e-05)
(-2.8094961e-05 3.5511636e-06 4.3931012e-05)
(-3.4047731e-05 3.8787629e-06 3.3292986e-05)
(-3.5275659e-05 5.3191255e-06 5.3757052e-05)
(-3.4486182e-05 1.0553104e-05 5.9065536e-05)
(-4.1024262e-05 1.158126e-05 6.4190298e-05)
(-3.9266928e-05 8.5410781e-06 5.6252391e-05)
(-3.3508967e-05 7.9632365e-06 5.1179986e-05)
(-4.0941358e-05 8.7848625e-06 6.0778599e-05)
(-5.1616684e-05 -7.2898964e-06 6.7282358e-05)
(-4.7906865e-05 -7.7482033e-06 6.1439437e-05)
(8.6263677e-06 -7.1753206e-07 1.3271861e-07)
(-6.1886443e-05 4.0504436e-07 0.00010992905)
(-4.2532568e-05 8.4309261e-06 5.4960686e-05)
(-5.2058603e-05 1.2759628e-05 7.2213739e-05)
(-2.0903205e-05 5.9628687e-06 2.2160446e-05)
(-4.9621066e-05 -9.8720329e-06 6.5196923e-05)
(-5.52261e-05 9.0821004e-06 7.0279252e-05)
(-5.2621694e-05 4.7965001e-06 6.2336018e-05)
(-2.1547926e-05 1.0777874e-05 4.6168656e-05)
(-2.6892833e-05 1.0042397e-05 2.9964985e-05)
(-5.2538257e-05 1.1514848e-05 6.9540739e-05)
(-6.2080848e-05 3.5912153e-06 7.2106513e-05)
(-5.6097598e-05 1.3677791e-05 7.4398517e-05)
(-1.4380662e-05 1.0322588e-05 4.4215471e-05)
(-5.264654e-05 1.418826e-05 7.6146993e-05)
(-3.515366e-05 3.9412798e-06 3.2416702e-05)
(-5.46182e-05 4.1634678e-06 6.3438478e-05)
(-6.7361352e-06 -3.0161131e-06 2.0825281e-05)
(-3.977374e-05 -7.2360013e-06 6.8544585e-05)
(-4.4245329e-05 1.0876178e-05 6.4147718e-05)
(-4.5271251e-05 4.3729369e-06 4.8711358e-05)
(-2.3668907e-05 4.9115706e-06 4.6898841e-05)
(-5.8827721e-05 1.3112233e-05 7.9395713e-05)
(-9.3163841e-05 1.911373e-06 0.00015431182)
(-3.373623e-05 -9.0651265e-07 5.0875421e-05)
(-5.432093e-05 2.8719867e-06 6.7229821e-05)
(-6.4632842e-05 6.1650437e-06 8.2019811e-05)
(-1.0615082e-05 -4.9640309e-06 1.040906e-05)
(-2.7074749e-06 -9.6140051e-07 9.8514916e-06)
(-6.1325229e-05 1.1172063e-06 7.0691315e-05)
(-2.495651e-05 5.3400588e-06 2.5203076e-05)
(-5.5749169e-05 9.5069149e-06 7.0342484e-05)
(-5.8929002e-05 2.0205497e-06 6.8388696e-05)
(-4.4114426e-05 9.1130381e-06 5.1796343e-05)
(-9.788083e-05 6.3627122e-07 0.00016193228)
(-5.9320346e-05 9.5100366e-06 7.607788e-05)
(-5.3474178e-05 1.9369853e-06 5.4760114e-05)
(-7.1486729e-05 1.0884758e-05 8.7440928e-05)
(-7.1811979e-05 7.7926134e-06 8.4817864e-05)
(-5.6998099e-05 2.5802801e-06 6.9552479e-05)
(-6.7279912e-05 7.000869e-06 8.5629418e-05)
(-7.3160692e-07 -1.4334689e-05 -1.5516846e-05)
(-7.4752729e-05 4.7196267e-06 9.3050508e-05)
(-6.7661902e-05 1.6708354e-06 8.6267184e-05)
(-6.4193627e-05 1.8499758e-06 7.6554665e-05)
(-6.4348526e-05 5.7016201e-06 7.9540903e-05)
(1.4914456e-06 2.0231558e-05 3.4080822e-06)
(1.5139616e-06 1.9678347e-05 5.9885811e-06)
(2.323618e-06 1.8767456e-05 -8.2198283e-06)
(-7.3985929e-05 -3.5825996e-06 9.2415203e-05)
(-6.7527881e-05 1.1943718e-05 8.7226621e-05)
(-6.6274027e-05 3.7318839e-06 8.6462403e-05)
(-8.3332475e-05 8.4978512e-06 0.00010546649)
(6.9605738e-06 1.9571626e-05 -1.2781296e-05)
(3.8594704e-07 1.2759887e-05 1.1603997e-05)
(1.2949828e-05 1.7592316e-05 -1.9293644e-05)
(-7.7218243e-05 2.3600972e-06 9.5328648e-05)
(1.2341497e-05 -9.7229286e-06 -3.1304745e-05)
(-6.4968686e-05 6.2493679e-06 7.8113924e-05)
(-4.2778022e-05 4.4802943e-06 4.3796299e-05)
(-5.1654056e-05 4.4018031e-07 5.7435154e-05)
(-6.0958111e-05 3.7141256e-06 7.4627027e-05)
(1.4398552e-05 2.0418993e-05 -1.570317e-05)
(-5.7352779e-05 -1.4590051e-06 8.0387116e-05)
(9.5293903e-06 -2.0579075e-05 -2.5219031e-05)
(-5.7809643e-05 -6.0409602e-07 5.4457155e-05)
(2.2214896e-06 1.8764127e-07 -1.7744537e-06)
(7.0265627e-06 2.0695233e-05 -1.068665e-05)
(-4.3519719e-05 -8.2201749e-06 6.1008396e-05)
(3.6537374e-05 -1.7564895e-06 -5.2185354e-05)
(-3.7665551e-05 -5.2957516e-06 7.8335433e-05)
(-1.9961057e-05 1.1309516e-05 3.7587547e-05)
(-4.7147381e-05 9.7193435e-07 8.8078647e-05)
(-1.8981177e-05 6.1362202e-06 4.1586552e-05)
(-1.928408e-05 1.140099e-05 3.3967945e-05)
(-1.7369342e-05 7.729496e-06 4.1162294e-05)
(-3.6137993e-05 -4.1600904e-07 7.4101691e-05)
(-2.2082248e-05 6.3206266e-06 4.0568852e-05)
(-4.3610929e-05 9.7716612e-06 9.5476154e-05)
(-3.8183736e-05 1.1800871e-06 8.2788555e-05)
(-2.2169868e-05 2.2599376e-06 4.5455554e-05)
(-0.00010306011 2.8065602e-06 0.00016239391)
(-2.3905368e-05 -1.6537987e-06 4.6679386e-05)
(-3.2171554e-05 -5.9247457e-06 5.2420926e-05)
(-1.9584132e-06 7.6054708e-06 1.9197618e-05)
(-0.00017072857 2.1459928e-05 0.00027782857)
(-6.6629782e-05 -1.5224165e-06 9.8236891e-05)
(-3.8060492e-05 -7.6145602e-07 7.7605329e-05)
(-3.5632215e-05 7.0491529e-07 7.2988589e-05)
(-6.3786001e-05 -6.8008501e-06 9.0498343e-05)
(-6.0442893e-05 1.7593539e-06 8.2306639e-05)
(-8.8463627e-05 -7.0033699e-06 0.00014321149)
(-9.5210234e-06 -2.4353127e-07 2.1632664e-05)
(-7.2762124e-05 -1.9429062e-06 0.00011855919)
(-5.6878451e-05 -1.5542166e-06 7.5803859e-05)
(-9.8920424e-05 -2.3616564e-06 0.00016972484)
(-4.1768904e-05 3.6701658e-06 8.2609056e-05)
(-7.9468265e-05 -7.0109066e-06 0.00012890279)
(-8.7301264e-05 -2.9386466e-06 0.00013672847)
(-8.0207631e-05 -2.9157079e-06 0.00012574938)
(-7.6397939e-05 -1.1581724e-06 0.00012103612)
(-8.0516162e-05 1.1875928e-06 0.00012440795)
(-8.8963531e-05 -4.8260845e-06 0.00014097777)
(-9.1349411e-05 -3.7368065e-06 0.00014703796)
(-9.510927e-05 -3.4431407e-06 0.000145109)
(-9.3829557e-05 -4.1242184e-06 0.00014522475)
(-8.3666666e-05 -5.9502363e-06 0.00013234454)
(-9.9579189e-05 5.4742404e-07 0.00014913783)
(-8.1578079e-05 -2.6789044e-06 0.00012539697)
(1.3810934e-05 -1.7674769e-05 -2.9864836e-05)
(-8.5365417e-05 -3.4697422e-06 0.00012907328)
(-8.7987634e-05 -4.4305321e-06 0.00013258142)
(-0.00010184557 -1.1805199e-06 0.00017301919)
(-6.7436387e-05 -1.7956096e-06 0.0001076972)
(-8.8538154e-05 -3.6811314e-06 0.00013257553)
(-7.0867039e-05 -5.2836536e-06 0.00010785262)
(-7.9973391e-05 -3.7812406e-06 0.00012430594)
(-8.4450621e-05 -5.1695202e-06 0.00012797044)
(-8.372156e-05 -1.7744703e-06 0.00012656932)
(-9.9708103e-05 2.3082579e-06 0.00014411094)
(2.0490072e-05 4.420126e-07 -2.8042495e-05)
(-7.4229329e-05 -4.9697371e-06 0.00011194696)
(-8.9435973e-05 -5.8975644e-06 0.00013265005)
(-7.1886328e-05 -4.6348157e-06 0.00010387998)
(-8.0300307e-05 -4.352127e-06 0.00011535304)
(-9.5158544e-05 6.2193022e-07 0.00013440087)
(-8.810565e-05 -2.8534297e-06 0.00012721671)
(-8.9257284e-05 -5.7270607e-07 0.00013073289)
(-0.00010066252 4.2771015e-07 0.00015083323)
(-8.6413216e-05 8.8338174e-07 0.00012530367)
(-9.2377788e-05 -1.0390642e-06 0.00013654454)
(-5.7029145e-05 4.5220058e-06 6.4223066e-05)
(-7.8134334e-05 -5.7542317e-06 0.00011649279)
(1.0468055e-06 -1.0611866e-05 -2.2687767e-06)
(-0.00010512873 -8.9757768e-06 0.0001541537)