/*--------------------------------*- C++ -*----------------------------------*\
  =========                 |
  \\      /  F ield         | OpenFOAM: The Open Source CFD Toolbox
   \\    /   O peration     | Website:  https://openfoam.org
    \\  /    A nd           | Version:  11
     \\/     M anipulation  |
\*---------------------------------------------------------------------------*/
FoamFile
{
    format      ascii;
    class       volVectorField;
    location    "10000";
    object      wallShearStress;
}
// * * * * * * * * * * * * * * * * * * * * * * * * * * * * * * * * * * * * * //

dimensions      [0 2 -2 0 0 0 0];

internalField   uniform (0 0 0);

boundaryField
{
    wall-fluid_domain
    {
        type            calculated;
        value           nonuniform List<vector> 
50462
(
(0.00027733462 -2.1852715e-05 0.00021899169)
(0.00031769688 -3.4012914e-05 0.00025561134)
(0.00032141032 -2.8960109e-05 0.00016520312)
(0.0002930592 -2.4044656e-05 0.00015079272)
(0.00031237356 5.6819662e-05 0.0001856397)
(0.00034240391 -6.0937314e-06 0.00033693217)
(0.00032551909 -1.4493497e-05 0.00031992139)
(0.00035130478 1.0658492e-06 0.00035097181)
(0.00034625424 -2.8249844e-05 0.00019035872)
(0.00032922507 -1.2261937e-05 0.0003249329)
(0.00038876838 1.8044896e-05 0.00038073337)
(0.00029298914 -1.6806824e-05 0.00015762088)
(0.00032091219 1.0496384e-05 0.00032683284)
(0.00034529669 2.1446455e-05 0.00033714354)
(0.0003417548 2.1079064e-05 0.00033435537)
(0.00038291063 1.7434622e-05 0.00037525891)
(0.00029500289 -1.5024153e-05 0.00015819498)
(0.00030184578 7.7361829e-06 0.00031124586)
(0.00033882294 3.3729117e-06 0.0003454075)
(0.00031955253 -8.6518562e-06 0.00016909829)
(0.00035556062 2.4304291e-05 0.00034529493)
(0.00020678139 -1.5524187e-05 0.00011667913)
(0.00029895663 1.0358333e-05 0.00030438861)
(0.00027052525 -7.8371266e-06 0.00017483725)
(0.00037238082 1.8604275e-05 0.00037294481)
(0.00025437701 -8.4012605e-06 0.00014453142)
(0.00035323437 2.3845681e-05 0.00034207321)
(0.00030200178 -1.8972866e-05 0.00029448196)
(0.00034940995 3.1869298e-05 0.00033897)
(0.00029028933 6.4730666e-06 0.00029462706)
(0.00027535898 -1.3730587e-05 0.00019434189)
(0.00038061464 2.2341985e-05 0.00038068313)
(0.00039569333 1.96622e-05 0.00039091044)
(0.0002595715 -6.378767e-06 0.00015953668)
(0.00031598452 2.1470108e-05 0.00030902926)
(0.0003104017 1.1174344e-05 0.00031084309)
(0.00039314285 1.869244e-05 0.00038863379)
(0.00031123752 1.082292e-05 0.0003079677)
(0.00041013689 2.9446951e-05 0.00039777318)
(0.00037973828 2.3887467e-05 0.00038103381)
(0.00031968895 -1.8297707e-05 0.00015445073)
(0.00026214251 -3.0296846e-06 0.00016150193)
(0.00026616359 -8.558206e-06 0.00017541743)
(0.00040280265 3.0862159e-05 0.00039509726)
(0.0003104529 2.675218e-05 0.00030497231)
(0.00039559256 3.4110839e-05 0.00038832828)
(0.0003405807 1.9141671e-05 0.0003479323)
(0.00035227694 2.15955e-05 0.00034763493)
(0.0003662357 3.2682104e-05 0.00035457229)
(0.00031664178 2.5477268e-05 0.00030019407)
(0.0003356582 -3.6889315e-05 0.00026729422)
(0.00028182123 -1.2967233e-05 0.00013189311)
(0.00034204822 2.4690482e-05 0.00034134277)
(0.00024995527 -7.9387969e-06 0.0001510755)
(0.00036635755 -3.4184355e-05 0.00034562635)
(0.00027393851 3.7894998e-06 0.00011057361)
(0.00036992729 -2.763547e-06 0.00015366275)
(0.00037776286 -3.6795647e-05 0.00034777096)
(0.00037645894 -2.5056092e-06 0.00015697016)
(0.00045802116 -3.9645023e-05 0.0002300277)
(0.00033386602 -3.1625724e-05 0.00018500783)
(0.00022487955 -1.2359487e-05 0.00011662858)
(0.00025432996 -1.0506242e-05 0.00019519294)
(0.00030688814 -1.902073e-05 0.00024202144)
(0.00030974015 -1.8287867e-05 0.00016093831)
(0.00048357417 -2.3251384e-05 0.0002200776)
(0.000313481 -2.4059312e-05 0.00016544505)
(0.00025312412 -1.9885586e-06 0.00013881071)
(0.00025025387 -6.7696008e-06 0.00013345668)
(0.00032459104 1.3675131e-05 0.00033383353)
(0.00037959111 -4.2284605e-05 0.00034033817)
(0.00036698856 -3.9795258e-05 0.00033113341)
(0.0003423651 -3.2433889e-05 0.00029786465)
(0.00033867901 -3.6797152e-05 0.00029643576)
(0.00038178618 1.9098341e-05 0.00036994899)
(0.00030798212 2.0550766e-05 0.00030450992)
(0.00032159141 -3.4211055e-05 0.00025369888)
(0.00031748036 -3.7675059e-05 0.00026650625)
(0.00028799733 -2.1136219e-05 0.00023041941)
(0.00025441764 -1.6154605e-05 0.0002002095)
(0.00036431149 1.6651696e-05 0.00037227671)
(0.00027795479 -2.503783e-05 0.0002247826)
(0.00030589513 -3.4706486e-06 0.0003062662)
(0.00035370163 -4.6009427e-06 0.00014610865)
(0.00037070598 1.8938026e-05 0.00036314191)
(0.00030564691 -4.0884642e-06 0.00030412455)
(0.00035059694 1.6106419e-06 0.0003487115)
(0.0003099566 5.9546598e-06 0.00031576614)
(0.00024139121 -6.3511858e-07 0.00025089453)
(0.00030412775 6.1071889e-06 0.00030997739)
(0.00032309181 1.0400738e-05 0.00032175141)
(0.00027344336 3.421621e-05 0.00013924547)
(0.00026225248 2.6375647e-05 0.00012385512)
(0.00028659938 8.2834922e-06 0.00029469782)
(0.00031922787 1.4798206e-05 0.0003269462)
(0.00031430601 5.4230686e-06 0.00031534761)
(0.00025998239 1.1105125e-05 0.00026122606)
(0.00033325301 1.8079532e-05 0.00033206677)
(0.00028914307 1.2243588e-05 0.00028958829)
(0.00034022375 1.930375e-05 0.00033554086)
(0.00032329232 1.8624818e-05 0.00033021248)
(0.00028921215 3.0954684e-05 0.00014143147)
(0.0002767229 4.1131712e-05 0.00014524746)
(0.00031692274 4.3925868e-05 0.00017296718)
(0.00027581155 -2.8718691e-05 0.00022421094)
(0.00030725774 -2.3861571e-05 0.00024964558)
(0.00031983666 4.9634351e-05 0.00017423473)
(0.00026469883 -6.1603194e-06 0.00019094577)
(0.00033331355 3.6820277e-05 0.00016635176)
(0.00029404728 3.2927546e-05 0.00014256234)
(0.00030027717 3.0130898e-05 0.00014703305)
(0.00033231143 4.3401952e-05 0.00017052001)
(0.00028095755 -2.4937883e-05 0.00022944361)
(0.00032933474 -2.8098447e-05 0.00032155113)
(0.00024157711 -2.6053231e-05 0.00020587683)
(0.0003122435 -1.8974255e-05 0.00025389092)
(0.00024445713 -1.2607024e-05 0.00018620203)
(0.00037413585 -3.941122e-05 0.00034073873)
(0.00032370687 -3.1964655e-05 0.00029631868)
(0.00031865924 -3.1311933e-05 0.00029234703)
(0.0003263512 -2.9183815e-05 0.00029308024)
(0.00033900588 -2.9024221e-05 0.00032071688)
(0.00033323932 -2.8955489e-05 0.00031639807)
(0.00028167543 -1.3635236e-05 0.00022377094)
(0.00034844431 -3.5503834e-05 0.0003193371)
(0.00029466403 -2.7846402e-05 0.00025709603)
(0.00032836285 -2.7746517e-05 0.00030608741)
(0.00037109524 -2.1981006e-05 0.00035547982)
(0.00033934498 -2.4146664e-05 0.0003119488)
(0.00033158367 -2.7207635e-05 0.0002944979)
(0.00035096502 -2.8168841e-05 0.00032506778)
(0.00034562852 -3.7861962e-05 0.0003149566)
(0.00029552196 -2.8927997e-05 0.00025993889)
(0.00033461466 -3.5463231e-05 0.00031728142)
(0.000284951 -2.8648358e-05 0.00023886529)
(0.0003296662 -1.1394408e-05 0.00032333436)
(0.00034799414 -6.8943885e-06 0.00034615373)
(0.00033033618 -2.7049424e-05 0.00029392145)
(0.00028568584 -2.8292644e-05 0.00023872546)
(0.00028146666 -2.479883e-05 0.00024338878)
(0.00030069054 -2.2011498e-05 0.00024743231)
(0.00028317217 -2.837928e-05 0.00025144804)
(0.00029013069 -3.2927892e-05 0.00024991516)
(0.00027636455 -1.5127582e-05 0.00022865414)
(0.00035977999 -2.4281187e-05 0.00034836163)
(0.00027894553 -1.5557028e-05 0.00023162086)
(0.00052493896 -3.929029e-05 0.00045147219)
(0.00028704169 -2.5778642e-05 0.00024409013)
(0.00030601908 1.9924133e-06 0.00030091749)
(0.0003181644 -3.125844e-05 0.00027380096)
(0.00031683 -2.249513e-05 0.00026584972)
(0.00036202463 -2.6386085e-05 0.00032797239)
(0.00030747067 -2.4612911e-05 0.00026253999)
(0.0003147298 6.9566625e-06 0.00031305791)
(0.0002913086 -2.1548016e-05 0.00025014874)
(0.00032656862 -2.5814797e-05 0.00031010848)
(0.0002699427 -1.8799741e-05 0.00022768077)
(0.00034986367 -3.0656179e-05 0.00032168284)
(0.00033069032 -2.1814275e-05 0.00027339907)
(0.0005128378 -5.2868708e-05 0.00045010127)
(0.00027557896 -2.1840694e-05 0.00023650406)
(0.00032135934 -1.447083e-05 0.00026553884)
(0.00026870192 -2.4654741e-05 0.0002407099)
(0.00032394356 -1.0595417e-05 0.00026853626)
(0.00029083938 -2.4290253e-05 0.000254549)
(0.00037108246 -2.1096922e-05 0.00035406105)
(0.00033665983 -2.8285139e-05 0.0003244266)
(0.00027626935 -1.2993969e-05 0.00022012237)
(0.00031195707 -1.7280591e-05 0.00026309961)
(0.00030091457 -2.0864588e-05 0.00025691969)
(0.00050534664 -4.186971e-05 0.00045228267)
(0.00035060358 -2.817102e-05 0.00032783486)
(0.00030557165 -2.3606477e-05 0.00026416138)
(0.00023832374 -1.9361555e-05 0.0002095395)
(0.00032643041 -2.3593569e-05 0.00030626252)
(0.00031242608 -1.5891661e-05 0.00031354483)
(0.00023970456 -1.9797765e-05 0.0002146388)
(0.00031192388 -2.4026564e-05 0.00027704712)
(0.00027155426 -8.0793112e-06 0.00021209486)
(0.00025756871 -8.9983065e-06 0.0002162626)
(0.00032147923 -1.3336736e-05 0.00026636247)
(0.00032614146 -2.3365967e-05 0.00031108356)
(0.00033474523 -2.2038553e-05 0.00031088442)
(0.00025113731 -1.1587132e-05 0.00020925052)
(0.00028742162 -1.2678374e-05 0.00024051094)
(0.00034194332 -4.780023e-06 0.00034403156)
(0.00031558047 -2.350948e-05 0.00030846907)
(0.00034280913 -2.2677177e-05 0.00031811935)
(0.00029095828 -7.525821e-07 0.00029635651)
(0.00024594273 -1.0200463e-05 0.0001995542)
(0.00031237736 -1.8944238e-05 0.00029823156)
(0.00029812827 -1.8597706e-05 0.00029395873)
(0.00029599078 1.9602708e-06 0.00029951358)
(0.00035907205 -2.9056179e-05 0.00032861412)
(0.00032087316 -2.3403268e-05 0.00028038451)
(0.00031448952 -2.2473066e-05 0.00031065737)
(0.00036300332 -2.4658357e-05 0.00032694686)
(0.00024859505 -1.204765e-05 0.0002546342)
(0.00023990464 -8.0205017e-06 0.00019462899)
(0.00030968053 -2.2759545e-05 0.00027474053)
(0.00031403676 -1.9754034e-05 0.00031050662)
(0.00022820623 -3.8819526e-06 0.00019126566)
(0.00033031547 -2.2610043e-05 0.00030187208)
(0.00031881842 -1.1284747e-05 0.00030977645)
(0.00020703406 -1.1622215e-05 0.00017218822)
(0.00024406393 -1.8166161e-06 0.0002040598)
(0.00025200246 -1.0158538e-05 0.00025172716)
(0.00026967145 -2.9939606e-06 0.00021071884)
(0.00024674357 -1.0457027e-05 0.00018796202)
(0.00023039766 -3.8331677e-06 0.00019356721)
(0.00025781322 1.1815114e-05 0.00026291948)
(0.00030675652 1.7249957e-05 0.00030041984)
(0.00024369614 -7.7764028e-06 0.00020522121)
(0.00021350238 -1.1593472e-05 0.00018001082)
(0.00031486183 -1.3086573e-05 0.00031039642)
(0.00033127604 -7.449684e-06 0.00033713169)
(0.0003419788 -2.1149902e-05 0.00031693266)
(0.00027046834 -3.4411407e-06 0.00022600594)
(0.00029203375 -7.0678212e-06 0.00028839862)
(0.00037737515 -1.8022995e-05 0.00036354438)
(0.00035829072 -2.2542599e-05 0.00032146051)
(0.00032793998 -2.1516785e-05 0.00029941874)
(0.0003869291 -1.5217022e-05 0.00037374464)
(0.00029079811 -7.4672431e-06 0.00029613421)
(0.00029687153 -1.267524e-06 0.00029553726)
(0.00029544398 -1.9781928e-05 0.00027862794)
(0.00033176435 -1.8133237e-05 0.00031259295)
(0.00030999339 -5.1009234e-06 0.00030703385)
(0.00039171888 -1.5543678e-05 0.00037483948)
(0.00031200145 -8.9957806e-06 0.00031123362)
(0.00033575994 -4.4588896e-06 0.00032874299)
(0.00035204229 -7.104594e-06 0.0003404922)
(0.00035459049 -2.3063991e-05 0.00031958631)
(0.00033701959 -1.233882e-05 0.00033684938)
(0.00031485566 -2.9951155e-05 0.00028286416)
(0.00035015575 1.0925442e-06 0.00035030884)
(0.00038594528 -1.6684617e-05 0.00037164209)
(0.0003464533 1.7832584e-06 0.00034321994)
(0.00033187482 2.8714911e-07 0.00032590421)
(0.00035298325 7.3094415e-06 0.00034899165)
(0.00034730539 -1.7137185e-05 0.00033257427)
(0.00032909964 -1.7777064e-05 0.00031026878)
(0.00026362056 -1.0022633e-05 0.00026106836)
(0.00038355912 -2.2299572e-05 0.00035768545)
(0.00029269498 -1.7406217e-05 0.00027545521)
(0.00034158822 -2.0963965e-05 0.0003266686)
(0.0003343217 -2.3746683e-05 0.00033033901)
(0.0002641753 -1.0529489e-05 0.00026499689)
(0.00037705465 -2.2256619e-05 0.0003509168)
(0.00030720856 -2.4293343e-05 0.00028207745)
(0.00035813087 -2.3524802e-05 0.00034349064)
(0.00028236408 -2.301897e-05 0.00026976209)
(0.00035805034 -2.5192872e-05 0.0003375493)
(0.00028990412 -1.6941865e-05 0.00027516348)
(0.00033226359 -1.9609926e-05 0.00030426792)
(0.00033470234 -5.081722e-06 0.00032589628)
(0.00033284418 -8.4778691e-06 0.00033658461)
(0.00032732983 -1.946104e-05 0.00030546211)
(0.00031428009 -1.8900591e-05 0.00028954862)
(0.0002798686 -1.4019598e-05 0.00026766067)
(0.00032140739 -1.8188817e-05 0.0003006586)
(0.000362828 -1.9864164e-05 0.00034113578)
(0.0002929326 -2.136783e-05 0.00025861415)
(0.00032584029 1.6501853e-06 0.00033192478)
(0.00032624324 -1.8570456e-05 0.00030473032)
(0.00034294413 9.7905028e-06 0.00034824142)
(0.00030871668 -6.5902965e-06 0.00030285299)
(0.00032071286 1.397436e-05 0.00031641942)
(0.00030846722 -2.3764627e-05 0.0002897999)
(0.00035361761 -2.0886131e-05 0.00033715783)
(0.00031557019 -2.0074458e-05 0.00030234605)
(0.00030720957 -2.3041639e-05 0.00028725906)
(0.00026731554 -2.002113e-05 0.00024258192)
(0.00032454545 -1.9318607e-05 0.00029140845)
(0.0002584203 -2.2326047e-05 0.00024480181)
(0.00032957076 -2.4190133e-05 0.00030357502)
(0.00035518341 -3.7652924e-06 0.00036114198)
(0.0003585252 1.9069989e-06 0.00035707737)
(0.00031909648 -2.5077708e-05 0.00029032882)
(0.0002603917 -2.2051987e-05 0.00024051742)
(0.00030608159 -2.1705706e-05 0.00027350876)
(0.00027922099 -2.0829227e-05 0.00024748175)
(0.00036625273 -1.2280258e-05 0.00035296171)
(0.00032497504 6.1720908e-06 0.00032760066)
(0.00032046258 -2.4562472e-05 0.00028461035)
(0.00030279632 -2.3018991e-05 0.00027295113)
(0.00027753736 -1.3856525e-05 0.00027133181)
(0.00027700824 -2.0454997e-05 0.00025809211)
(0.00022916262 -1.99852e-05 0.00020720716)
(0.00030661992 -5.473358e-06 0.00030861462)
(0.00022993114 -2.1022411e-05 0.00021349826)
(0.00027966967 -2.3191154e-05 0.00024802951)
(0.00033000778 -2.3940552e-05 0.00028502314)
(0.0002852948 -1.8604833e-05 0.00026473356)
(0.00034415865 9.6029242e-06 0.00034601047)
(0.00024410429 -1.5326674e-05 0.00023653616)
(0.0003729478 -1.218475e-05 0.00035468622)
(0.00031003486 -5.8702875e-06 0.00030211656)
(0.00029151937 -2.1548144e-05 0.00025271994)
(0.00028580212 -2.2952034e-05 0.0002534685)
(0.00030539049 -1.4139568e-06 0.00030207996)
(8.5238415e-06 -4.2527102e-05 -2.1864258e-05)
(0.0002857189 -1.6269764e-05 0.00026536831)
(0.00027401465 -2.4913768e-05 0.00025382815)
(0.00033850726 6.2378589e-06 0.00034165173)
(0.00028249127 -1.9269222e-05 0.00026343231)
(0.00029022759 1.219903e-05 0.00029801188)
(0.00034324767 3.0842656e-06 0.00034217963)
(0.0003234133 -2.365519e-05 0.0002817888)
(0.00032031304 -2.6345989e-05 0.00028068038)
(0.00034090361 4.7587531e-06 0.00033597578)
(0.00034328369 1.0625077e-05 0.00034053778)
(0.00030307466 -4.6621326e-06 0.00030220306)
(0.00030936624 9.2320797e-07 0.00030617089)
(2.8170851e-05 -2.4244049e-05 -1.4114616e-05)
(0.00029907446 1.4475545e-05 0.00029521161)
(0.00041538014 2.0213763e-05 0.00041256231)
(0.00027813833 -2.3033311e-05 0.0002429446)
(0.00029848304 1.1613596e-05 0.00029786725)
(0.00036133988 9.099871e-06 0.00034997309)
(0.00030552788 2.3297337e-06 0.00030663694)
(0.00031732797 -2.3355754e-05 0.00026938186)
(0.00029292181 1.3864672e-05 0.00029579526)
(0.00029091043 1.2841942e-05 0.00029178307)
(0.00035213076 1.0719415e-05 0.00034732505)
(0.00029573761 -3.2908739e-06 0.00028735568)
(0.00029072404 -2.4898574e-05 0.00025291096)
(0.0004241744 2.3671723e-05 0.00041121131)
(0.00035463045 7.9497169e-06 0.00034690091)
(0.00031278273 6.7089677e-07 0.00030673488)
(0.00022737136 -2.2815686e-05 0.000201252)
(0.00028298662 -8.072956e-07 0.00027578219)
(0.00029812084 8.8674246e-06 0.0002993187)
(0.00032621706 1.3389947e-05 0.00032389523)
(0.00030818929 2.159648e-06 0.0003088149)
(0.00029685535 7.1821584e-06 0.0002920891)
(0.00030043156 1.0177471e-05 0.00029666053)
(0.00031041828 -2.6358335e-05 0.00026334015)
(0.00027788156 -2.1062495e-06 0.00027258995)
(0.00031560586 -2.2619943e-05 0.00026578996)
(0.00034131537 3.5510891e-06 0.00033006139)
(0.00032186388 -2.0248783e-05 0.00026827183)
(0.00027236324 -9.6923207e-07 0.00026592665)
(0.0002730798 -2.2130295e-05 0.0002478707)
(0.00033308722 -9.703644e-06 0.00032444956)
(0.00026940206 -1.4838881e-06 0.00026282214)
(0.00031114744 -2.5177884e-05 0.00027548843)
(0.00024363741 1.2175075e-05 0.00024189223)
(0.00029620886 8.3466292e-06 0.00029459654)
(0.00030066754 -2.107926e-05 0.00026120585)
(0.00033751559 6.4139096e-06 0.00033394755)
(0.0003386506 1.3541387e-05 0.00032439506)
(0.00028161681 -1.9477484e-05 0.00023257613)
(0.00036107054 -1.5607657e-05 0.00033810573)
(0.00031668973 1.8083501e-05 0.00030213467)
(0.00028026863 9.4210319e-07 0.00027806762)
(0.00034683393 8.3258977e-06 0.00033389394)
(0.00028803746 -5.2739222e-06 0.00023810992)
(0.00027258124 -8.3684775e-06 0.00022514272)
(0.00028016189 3.957058e-06 0.00027487645)
(0.00029367306 -2.1377743e-05 0.00024817209)
(0.00036979489 -1.5976833e-05 0.00034597736)
(0.00027040503 -2.1673179e-05 0.00024246425)
(0.00025743546 -2.2913533e-05 0.00024612102)
(0.00033729487 1.0589154e-05 0.00032478847)
(0.00035191344 -1.5637195e-05 0.00033367647)
(0.0002897529 7.2799546e-06 0.00028182183)
(0.00032661371 8.8615236e-06 0.00032107179)
(0.00033650569 1.3041772e-05 0.00032329461)
(0.00031794083 1.7661564e-05 0.00030150203)
(0.00031036757 1.2225721e-05 0.00031326714)
(0.00033120902 1.3399513e-05 0.00031981729)
(0.00036727536 -1.3496599e-05 0.00035291025)
(0.00027321908 1.1443546e-05 0.00026165546)
(0.00029738071 -2.8377779e-05 0.00026890648)
(0.00022078331 1.2897419e-05 0.00021768283)
(0.00031660997 1.7460719e-05 0.00030064894)
(0.00028900495 1.9104241e-05 0.00028712635)
(0.00031470589 -2.1526839e-05 0.00026328162)
(0.00028134554 7.6773931e-06 0.00027928916)
(0.00030811664 2.3527119e-05 0.00029580238)
(0.00023388684 -1.3659631e-05 0.00019780442)
(0.00027777605 -1.9430788e-05 0.00022910011)
(0.00026270144 9.5004721e-06 0.00025834547)
(0.00036255738 -2.3771257e-05 0.00031348571)
(0.00029703506 2.0935692e-05 0.00028586332)
(0.00029703013 -6.8861313e-06 0.00029269215)
(0.00023075068 -1.5595648e-05 0.00019553623)
(0.00028736566 -2.6682842e-05 0.0002473012)
(0.00027554982 -1.2678043e-05 0.00026199454)
(0.00027857551 -2.1626365e-05 0.0002390349)
(0.00030739939 -2.6127409e-05 0.00026070257)
(0.00037768841 -2.2742255e-05 0.00031927853)
(0.00034649205 2.0875743e-05 0.00034982285)
(0.00026290563 -2.3077398e-05 0.00023750688)
(0.0002638527 -1.9922572e-05 0.00021306319)
(0.00029631442 -7.1173701e-06 0.00029481396)
(0.00033512139 -9.2252649e-06 0.00032208652)
(0.00029793811 -5.0645283e-06 0.00029625969)
(0.00024510859 -2.1633059e-05 0.00022145318)
(0.00033270647 1.6265e-05 0.00032283725)
(0.00028326166 -1.6978372e-05 0.00022518537)
(0.0002770518 -2.3023349e-05 0.00024308232)
(0.00027065849 -2.7121094e-05 0.00024084626)
(0.0002695605 -2.3940998e-05 0.00022809294)
(0.00021331838 -9.21251e-06 0.00018195659)
(0.00024952777 -2.3853058e-05 0.00020758551)
(0.00026456916 -2.7055816e-05 0.00022659841)
(0.00025821903 -2.223273e-05 0.00020883326)
(0.00031107705 2.0362651e-05 0.00030532647)
(0.00026383299 -2.2188847e-05 0.00021482199)
(0.00029628044 -2.440884e-05 0.00025603831)
(0.00027651537 -2.3810309e-05 0.00023132519)
(0.00036587266 -1.6213459e-05 0.00034637083)
(0.00034544252 -2.2912564e-05 0.00029063364)
(0.00025756576 -2.6096091e-05 0.00020913238)
(0.00028345848 -2.9483774e-05 0.00024801221)
(0.00035818842 -1.9847374e-05 0.00034108947)
(0.00027045984 -2.7336392e-05 0.00022660956)
(0.0002388468 -2.5949227e-05 0.00019441603)
(0.00029781684 -2.209762e-05 0.00025693411)
(0.0002953295 -2.7695812e-05 0.00023313122)
(0.00023438018 -2.601396e-05 0.00018864028)
(0.00025973758 -2.0422745e-05 0.00020234827)
(0.00026075731 -2.4236418e-05 0.00020804113)
(0.00029186434 -2.2661377e-05 0.00022793181)
(0.00026990914 -2.5769017e-05 0.00021792802)
(0.00030039905 -2.2468555e-05 0.00023121421)
(0.00026892978 -2.3966189e-05 0.00021459632)
(0.00021555866 -2.4293239e-05 0.00018316326)
(0.00026399759 -2.5379817e-05 0.00021414765)
(0.00027792425 -2.564015e-05 0.00023205329)
(0.00021441959 -2.400688e-05 0.00017517374)
(0.00026022528 -3.0621338e-05 0.00021888964)
(0.00027123774 -2.5132335e-05 0.00022771124)
(0.00029894092 -2.754658e-05 0.00024545969)
(0.00026207504 -2.3755538e-05 0.00020839959)
(0.00035149566 -2.1800591e-05 0.00029411094)
(0.00027433662 -2.0504799e-05 0.00021909965)
(0.00028896414 -3.0016639e-05 0.00023782361)
(0.00026659238 -2.9203478e-05 0.00023014529)
(0.00021060987 -2.6454e-05 0.00018779269)
(0.00030614772 -1.834385e-05 0.00023538444)
(0.00028307778 -2.6886667e-05 0.00024136582)
(0.00027654937 -2.681032e-05 0.00023841047)
(0.00026694327 -1.538245e-05 0.00020278959)
(0.00028305643 -2.936817e-05 0.00024375522)
(0.00025857939 -2.3008481e-05 0.00022402977)
(0.00029142758 -1.6210274e-05 0.00027139929)
(0.00027899704 -2.601514e-05 0.00021684706)
(0.00025379821 -2.3957511e-05 0.00022255609)
(0.00027924915 -1.3417592e-05 0.00021716804)
(0.00024609524 -2.4576991e-05 0.00022046914)
(0.00028151217 -3.0996396e-05 0.0002520597)
(0.00022087377 -1.4173778e-05 0.00017614)
(0.00027306465 -1.8324545e-05 0.00022295769)
(0.00037021286 -6.9680916e-06 0.00030534334)
(0.00029297606 -2.5736732e-05 0.00022984113)
(0.0002665283 -2.1700687e-05 0.00019749802)
(0.00029858741 -1.9309771e-05 0.00022168983)
(0.00037594464 -2.3416931e-05 0.00031858984)
(0.0002513275 -2.9394047e-05 0.00019896473)
(0.00029157954 -1.740964e-05 0.00023109686)
(0.00021633195 -2.2027857e-05 0.00016884893)
(0.00027762045 -1.7356732e-05 0.00021366476)
(0.00029080087 -1.5772053e-05 0.00022020706)
(0.00028909204 -1.8437212e-05 0.00026771857)
(0.00028557357 -2.0383675e-05 0.0002153345)
(0.00026776305 -1.7024229e-05 0.00019410685)
(0.00025623008 -2.4997605e-05 0.00020312578)
(0.00027951396 -1.1831965e-05 0.00021164728)
(0.0003153892 -9.9845079e-06 0.00023323545)
(0.00025533793 -1.9169353e-05 0.00019554113)
(0.00032263267 -7.3393849e-06 0.00023660093)
(0.00027678154 -1.7315759e-05 0.00022667422)
(0.00026942391 -1.7858396e-05 0.00019735734)
(0.00022541988 -1.1525529e-05 0.00017577515)
(0.00027968063 -7.3957819e-06 0.00020337069)
(0.00032836425 -2.7662716e-05 0.00030916456)
(0.00030078007 -1.4687072e-05 0.000224684)
(0.00027241377 -1.3673251e-05 0.00019698682)
(0.00025667664 -2.5019012e-05 0.00023954566)
(0.00027174786 -1.4754111e-05 0.00020829375)
(0.00027908945 -1.576543e-05 0.00020327402)
(0.00030150697 -4.1387271e-06 0.00022204951)
(0.00024107543 -2.1538172e-05 0.0002178572)
(0.00023794117 -1.6677459e-05 0.00020533177)
(0.00028022694 -1.1966293e-05 0.00020023518)
(0.00026465273 -1.445789e-05 0.00021382301)
(0.00038522509 -1.6746306e-05 0.00032533542)
(0.00036172938 -7.6193907e-06 0.00029879145)
(0.00025398133 -2.4463876e-05 0.0001944058)
(0.00028085951 -6.5411409e-06 0.00021364711)
(0.00023885613 -2.7370593e-05 0.00020006669)
(0.00031014531 -6.7934576e-06 0.00023336842)
(0.00033176787 -1.378578e-05 0.00026494227)
(0.00029893803 -2.4638051e-05 0.00026197046)
(0.00030794531 1.3555684e-06 0.00022559233)
(0.00027423562 -2.1874371e-05 0.00020977737)
(1.4307227e-05 -4.9504325e-05 -2.5550235e-05)
(0.00032570424 -1.9769372e-05 0.00026077157)
(0.00025369556 -6.2568206e-06 0.00019482535)
(0.00024784561 -1.1289991e-05 0.00019644627)
(0.00026604332 -1.1653845e-05 0.0002130418)
(0.00029522334 -1.7335813e-05 0.00022210707)
(0.00027878301 3.8585925e-06 0.00021389342)
(0.00027392225 -5.1769378e-07 0.00020731506)
(0.00024729482 -5.2976852e-06 0.00019189528)
(0.00024110419 -2.4861054e-05 0.00018923383)
(0.00030417067 -1.4584084e-05 0.00025049295)
(0.00024691354 -2.3059549e-05 0.00019158462)
(0.00027567226 -1.4087649e-05 0.00019766329)
(0.00036844205 -1.9435511e-05 0.00031352428)
(0.00028808292 -2.9011083e-05 0.00025764876)
(0.00026975021 -1.4698422e-05 0.00019709215)
(0.00024672708 -2.0207336e-05 0.00018883838)
(0.00024219181 -3.1582679e-05 0.00019602334)
(0.00027319797 -1.4861832e-05 0.00019702585)
(0.00032512258 -1.8833007e-05 0.00026352131)
(0.00027206075 -2.676178e-05 0.00020894423)
(0.0002662493 -1.9613348e-05 0.0001982494)
(0.00021586375 -2.3595659e-05 0.00019751424)
(0.0003354007 -1.5204864e-05 0.0002651325)
(0.00025468672 -2.0353629e-05 0.00018789017)
(0.00024037655 -8.4202091e-06 0.0001694581)
(0.00019989935 -2.1680388e-05 0.00015266381)
(0.00026524682 -4.6962264e-06 0.00018721687)
(0.00028395749 -2.6565765e-05 0.00024217565)
(0.00024543521 -1.4935217e-05 0.00017826221)
(0.00024606298 -2.1540597e-05 0.00018223745)
(0.00020299116 -2.5537108e-05 0.0001601427)
(0.00033768647 -1.1744918e-05 0.00026895619)
(0.00036755037 -1.2815615e-05 0.00030291549)
(4.7856127e-05 -2.557476e-05 -7.8222502e-07)
(0.00020497822 -1.9770398e-06 0.00014899685)
(0.0002453631 -2.7010874e-05 0.0002128376)
(0.00029903063 -1.6046126e-05 0.00022156947)
(0.00037857858 -1.8534189e-05 0.0003170409)
(0.00025448368 -2.1269373e-05 0.0001955572)
(0.0002957692 -1.0062742e-05 0.00020968966)
(0.00029263035 -2.5605957e-05 0.00022305293)
(0.00028292295 -1.889014e-05 0.00020933615)
(0.00028844473 -1.5805462e-05 0.0002054865)
(0.00023097857 6.6732257e-07 0.00017496743)
(0.00028616662 -1.798277e-05 0.00020732471)
(0.00026397943 -2.4155083e-05 0.00024196004)
(0.00028361314 -2.3836348e-05 0.0002555054)
(0.00026256054 -2.031615e-05 0.00018907723)
(0.00032623089 -2.5846594e-05 0.00031560685)
(0.00033558345 -2.5465572e-05 0.00028223849)
(0.00027168514 -9.9319032e-06 0.00019058491)
(0.00025852954 -1.5628618e-05 0.0001893242)
(0.00024034108 -1.8554922e-05 0.00018288743)
(0.00026735982 -1.2408512e-05 0.00018746825)
(0.00026149929 -2.0205825e-05 0.0001945057)
(0.00026352336 -1.9491314e-05 0.00018789257)
(0.00025443658 -1.7458598e-05 0.00018157301)
(0.00024631261 3.0068229e-06 0.00017273804)
(0.0002418213 -1.6125031e-05 0.00018072246)
(0.00032917888 -1.7507082e-05 0.00026615169)
(0.00029503289 -1.0024731e-05 0.00020565927)
(0.00024474924 -1.3552582e-05 0.00017787504)
(0.00027817443 -3.1548227e-05 0.00025567711)
(0.00026116791 -1.37e-05 0.00018022062)
(0.00024328941 -1.8630722e-05 0.00018256932)
(0.00027741562 -3.1526316e-05 0.00023639853)
(0.00027603064 -1.544719e-05 0.0001930263)
(0.0002553257 -2.5977634e-05 0.00020224062)
(0.00018961707 -9.8421443e-06 0.00013525335)
(0.00023482776 -1.4107115e-05 0.00016675593)
(0.00023720595 -2.4437392e-05 0.00019061058)
(0.0002603354 -8.1665306e-06 0.00017578624)
(0.00023116397 -9.8232746e-06 0.00016055243)
(0.00023675241 -2.207562e-05 0.00018569943)
(0.00023299742 -1.3326752e-05 0.0001563176)
(0.00019882483 -1.785052e-05 0.0001560327)
(0.00026777469 -2.2168973e-05 0.00021002089)
(0.00034838446 -2.3336313e-05 0.00029703733)
(0.00023486133 -3.8133339e-06 0.00016744629)
(0.00019620207 -1.5782117e-05 0.00015430392)
(0.00026158943 -1.5837269e-05 0.00018302042)
(0.00032210463 -1.7751353e-05 0.00026305769)
(0.00036709708 -2.6279051e-05 0.00031120833)
(0.00020927334 -1.2288832e-05 0.00014893541)
(0.00027562257 -2.5133442e-05 0.00025365096)
(0.0002628368 -2.5821666e-05 0.00024953539)
(0.00022913605 -2.2439184e-05 0.00021777825)
(0.00027604169 -2.151622e-05 0.00026328112)
(0.00023432736 -1.9902311e-05 0.00022055762)
(0.00019523605 -1.3007144e-05 0.00014392145)
(0.00025562287 -9.0841956e-06 0.00018387264)
(0.00026861318 -4.9517813e-06 0.00018568542)
(0.00033696583 -1.2973643e-05 0.00027818256)
(0.00027100466 -1.9701332e-05 0.00026409056)
(0.00026102384 -1.7955029e-05 0.00025576692)
(0.00026876344 -1.6295558e-05 0.00025626828)
(0.00032906966 -1.6672518e-05 0.00027508287)
(0.00022390594 -1.4186132e-05 0.00017239633)
(0.00025183271 -1.3811335e-05 0.0002435175)
(0.00036172702 -1.5345537e-05 0.0003019021)
(0.00034581655 -1.9401349e-05 0.00029165182)
(0.00026634748 -7.0215158e-06 0.00018525665)
(0.00028895583 -1.0200146e-05 0.00021388104)
(0.00025553805 -7.3937011e-06 0.00018175929)
(0.00037724201 -1.6753104e-05 0.00032281608)
(0.00019785534 -1.9449653e-05 0.00015025078)
(0.00028197223 -2.8684329e-05 0.0002459007)
(0.00030168035 -1.882566e-05 0.00023547658)
(0.00027120077 -2.7630999e-05 0.00021541856)
(0.00022132912 -1.6966811e-05 0.00017293464)
(0.00028491156 -1.3203564e-05 0.00020874473)
(0.00029900681 -1.9723855e-05 0.00023328856)
(0.00028105948 -1.6609159e-05 0.0002067149)
(0.00025784893 -1.2562851e-05 0.00019214772)
(0.00027808584 -2.3993247e-05 0.00022229911)
(0.00025519048 -1.0282229e-05 0.0001854529)
(0.00028505986 -4.9547387e-06 0.00020230498)
(0.0002520713 -1.3625924e-05 0.00018726508)
(0.00025345851 -1.8646548e-05 0.00019627365)
(0.00023737838 -1.0950094e-05 0.00017747685)
(0.00025846632 -1.5513842e-05 0.00019531296)
(0.00025028132 -1.6744229e-05 0.00019418027)
(0.00028052467 -7.5925818e-06 0.00019656903)
(0.00029165697 -1.6415538e-05 0.0002299865)
(0.00026877963 -1.1499507e-05 0.00019468219)
(0.00027181521 -8.0612756e-06 0.00020274447)
(0.00025086407 -2.4448833e-05 0.00020129567)
(0.00028788074 -2.245038e-05 0.00023102899)
(0.00028070116 -2.0003386e-05 0.00022355831)
(0.00028359474 -2.2746331e-05 0.00022964554)
(0.00025766208 -1.9004494e-05 0.00019941447)
(0.00026635382 -1.0726931e-05 0.00019702014)
(0.00024415807 -3.9081214e-06 0.00017832778)
(0.00028852787 -1.7571543e-05 0.00022842156)
(0.0002756979 -4.2115149e-06 0.00020255478)
(0.00028165814 -1.4288446e-05 0.00021409448)
(0.00028126672 -2.3759237e-05 0.00023302427)
(0.00025770015 -1.5813896e-05 0.00019612722)
(0.00027831541 -1.6353221e-05 0.00022201791)
(0.00029670277 -2.205721e-05 0.00024632042)
(0.00026310188 -1.8700635e-05 0.00021306837)
(0.00030990679 -2.7400832e-05 0.00025520169)
(0.00023995925 -1.6569871e-05 0.00018918966)
(0.00027154213 -1.8710178e-05 0.00021214239)
(0.00027343953 -1.9095063e-05 0.00021702202)
(0.00028946105 -2.5532732e-05 0.00024365483)
(0.00029047537 -2.3300448e-05 0.00024531079)
(0.00029171058 -2.5106711e-05 0.00024720739)
(0.00034304673 -2.741711e-05 0.00028729833)
(0.00025944902 -2.4599513e-05 0.00021394834)
(0.00026654062 -2.7965309e-05 0.00023721604)
(0.00022951687 -2.2370146e-05 0.00020192581)
(0.00033686294 -3.0056684e-05 0.00028230635)
(0.00027197427 -2.6346147e-05 0.00023680923)
(0.00026662709 -2.2381829e-05 0.00021518434)
(0.0002716019 -3.1590918e-05 0.00024159821)