/*--------------------------------*- C++ -*----------------------------------*\
  =========                 |
  \\      /  F ield         | OpenFOAM: The Open Source CFD Toolbox
   \\    /   O peration     | Website:  https://openfoam.org
    \\  /    A nd           | Version:  11
     \\/     M anipulation  |
\*---------------------------------------------------------------------------*/
FoamFile
{
    format      ascii;
    class       volVectorField;
    location    "10000";
    object      wallShearStress;
}
// * * * * * * * * * * * * * * * * * * * * * * * * * * * * * * * * * * * * * //

dimensions      [0 2 -2 0 0 0 0];

internalField   uniform (0 0 0);

boundaryField
{
    wall-fluid_domain
    {
        type            calculated;
        value           nonuniform List<vector> 
42723
(
(-0.0001974762 -4.2529094e-07 0.00018058952)
(-0.00016063662 -2.3227904e-06 0.00015420899)
(-0.00011524752 -1.3079377e-06 0.00011880441)
(-0.00018093005 4.3938775e-06 0.00018032899)
(-0.00015166217 -4.3592233e-06 0.00014506759)
(-0.00016745808 7.0964968e-06 0.00015379144)
(-0.00017072927 4.9902663e-06 0.00015438315)
(-0.00015452662 -2.4046823e-06 0.00014329294)
(-0.00014992167 -3.1529913e-06 0.00014270246)
(-0.00018016458 1.2815632e-05 0.00017363419)
(2.6938135e-05 -1.8149556e-05 -3.109296e-05)
(-0.00013637373 4.9074681e-07 0.00013811579)
(-0.0001866232 7.9021329e-06 0.00017312533)
(-0.00015038478 -3.8438758e-06 0.00015490709)
(-0.00016566498 5.1087255e-06 0.00014822424)
(-7.7713139e-05 -2.9756487e-05 3.4110608e-05)
(-0.00017885673 -1.6618974e-06 0.00016823142)
(-0.00011702651 -4.2735673e-06 0.00011415456)
(-0.00016091246 -4.6182417e-06 0.00015388684)
(-0.00016690057 -1.650196e-06 0.00016719869)
(-0.00026719166 -5.4525949e-05 0.0001753078)
(-0.00015260572 6.7371795e-06 0.00014637112)
(-0.00017863444 3.2011951e-06 0.00016124838)
(-0.00013725306 -1.0577903e-06 0.00013503511)
(-0.00011458949 -1.5124256e-06 0.0001136367)
(-0.00013626696 -4.1048893e-06 0.00014069238)
(-0.00021404969 -1.1844473e-05 0.00017944091)
(-0.00017487932 -1.6086126e-06 0.00016874997)
(-0.00016581904 -2.0500037e-06 0.00016807238)
(-0.00017575798 -1.2714686e-06 0.00016823284)
(-4.8766751e-05 1.238534e-05 3.4800724e-05)
(-0.00017546614 -7.5604914e-06 0.00017889262)
(-0.00014039155 -5.9928173e-06 0.0001363404)
(-4.5372823e-05 8.3581656e-06 3.0212652e-05)
(-0.00015218545 -5.8005984e-06 0.00015577889)
(-0.00018915739 8.8215271e-06 0.00017750746)
(-0.00019278883 9.3564742e-06 0.00017870724)
(-0.00016994933 -2.7884486e-06 0.00016489207)
(-0.00015892313 6.1963579e-06 0.00015304276)
(-0.00019399228 -4.9476869e-06 0.00017820553)
(-0.0001403069 -4.7432099e-06 0.00014151978)
(-0.00015682969 -2.3231123e-06 0.00015313863)
(-0.00015493827 8.2350491e-07 0.00014586062)
(-0.00015883934 -4.2925354e-06 0.00015136474)
(-4.0774965e-05 8.5812411e-06 2.8706465e-05)
(-0.00013172191 -1.7051215e-06 0.0001158848)
(-0.00015049601 4.3957396e-07 0.0001576928)
(-0.00018400643 -2.7805051e-06 0.00017985959)
(-0.00016359204 -1.7838659e-06 0.00015021269)
(-0.00014886166 -2.4328221e-06 0.0001402312)
(-0.00019211139 -9.6742692e-07 0.00017465299)
(-0.00015349209 -2.2554482e-06 0.00014876698)
(-0.00014254654 -3.6681968e-06 0.00014066158)
(-0.00018037826 5.892482e-06 0.00017772823)
(-5.5847268e-05 1.7297188e-05 4.2161949e-05)
(-0.00011774648 -2.300855e-06 0.00011255001)
(-0.00017457865 4.4515114e-06 0.00017286899)
(-0.00020598338 6.8205812e-07 0.0001862151)
(-0.00014848491 -3.4618599e-06 0.00014348914)
(-0.00015763746 -2.4137124e-06 0.00015502952)
(-5.416647e-05 1.0505057e-05 3.6531335e-05)
(-0.00013267491 -1.1954883e-06 0.0001330813)
(-0.00012348432 2.3525995e-06 0.00012121321)
(-0.00020048645 -1.5043759e-05 0.00015788705)
(-0.00019940315 -2.2395958e-06 0.00015770915)
(-0.0001305093 -9.0505148e-07 0.00013285092)
(-0.00015649919 -1.8548008e-06 0.00014627554)
(-4.1154048e-05 8.030622e-06 2.9440094e-05)
(-0.00018545446 2.3102662e-06 0.00017570318)
(-0.00016389945 7.7190556e-06 0.00015790194)
(-0.00015911187 2.3123888e-06 0.00014991866)
(-0.00012655037 -2.8293312e-06 0.00012519533)
(-0.00013456036 -3.9440906e-06 0.00013128727)
(-0.00013817345 3.5280808e-06 0.00013867694)
(-0.00012774185 -3.2306709e-06 0.00012658724)
(-0.00013583799 -3.6230826e-06 0.0001321413)
(-0.00015285671 -4.423328e-06 0.00015239323)
(-0.00016096542 2.2359955e-06 0.00015511131)
(-0.00015061617 -5.498855e-06 0.00014364015)
(-0.00016016916 1.3470287e-06 0.00015774352)
(-0.00014690113 -2.9132416e-06 0.00013936143)
(-0.00013602047 -3.438905e-06 0.00013428299)
(-0.00015767291 -2.3542383e-06 0.0001505442)
(-0.00015362139 -4.3840572e-06 0.00014657401)
(-0.00014158858 -2.2535988e-06 0.00013497715)
(-3.7780294e-05 8.8714937e-06 3.2548828e-05)
(-0.00018299815 6.0668547e-06 0.00017632804)
(-0.00014599901 -3.863161e-06 0.0001371098)
(-0.00013552067 -4.4982442e-06 0.00013588481)
(-0.0001384021 -3.8079378e-06 0.00013650847)
(-0.00016189119 -4.5026733e-07 0.00014772444)
(-0.00016014937 -5.2662073e-06 0.00015390053)
(-0.00011227084 -2.9386234e-06 0.0001122963)
(-0.00020327753 -2.1032621e-06 0.00016134526)
(-0.00022375845 4.3535692e-06 0.00010000337)
(3.1995142e-05 1.5860593e-05 -2.5172691e-05)
(-0.00014034547 -3.4620481e-06 0.00013446612)
(-0.00011450887 -5.1339394e-06 0.00011517457)
(-0.00014334706 -4.4916644e-06 0.00013594275)
(-0.00012502678 -3.3307403e-06 0.00012988288)
(-0.00014723132 -1.0977284e-05 0.00014147018)
(-0.00013833502 -6.1432158e-06 0.00013360443)
(-0.00018766187 -6.7620188e-06 0.00014482428)
(-3.7540876e-05 -5.1963825e-07 3.8555489e-05)
(-0.00014650447 -3.963933e-06 0.00014043833)
(-0.00014159113 -1.9898403e-06 0.00014371887)
(-2.9531049e-05 1.4644764e-06 3.4704627e-05)
(-0.00010678444 -7.8383083e-06 0.00010161523)
(-0.00017415261 -9.451133e-07 0.00011842807)
(-6.7583103e-05 3.4526815e-06 5.5810339e-05)
(-0.00014005879 -8.4942011e-06 0.0001395418)
(-0.00019172708 -4.5810637e-07 0.00011251175)
(-0.0001864153 7.7061442e-06 0.00013141837)
(-0.00015569297 2.5454959e-06 0.00014833388)
(-0.00014091233 -5.0112748e-06 0.00014144532)
(-0.00014316382 -3.5242075e-06 0.00014603461)
(-0.00025692414 5.2072599e-07 0.00012116949)
(-0.0001281604 -2.0096719e-06 0.00012028907)
(-0.00011266026 -3.006504e-06 0.0001228798)
(-4.679387e-05 9.8684128e-06 3.56455e-05)
(-0.00015779675 2.543433e-06 0.00010078863)
(-0.00013528241 -2.9311238e-06 0.00013070472)
(-0.00011137877 -5.9919596e-06 0.00011611951)
(-0.00023335666 -2.7184622e-05 0.00017303685)
(-0.00014898857 -6.3651668e-06 0.0001448962)
(-0.00015156507 -2.4829098e-06 0.00014494142)
(-0.00029676188 -4.4942786e-05 0.00019696818)
(-0.00014607041 -3.7857324e-06 0.00014048092)
(-0.00017381973 5.9273797e-07 0.00010968265)
(-0.00010879009 -4.5965692e-06 0.00011335248)
(-0.00015927759 1.4650354e-06 0.00014950486)
(-0.00014102567 -6.7805678e-06 0.00013512409)
(-0.00017825305 -3.4381485e-06 0.00017197612)
(-0.00021383782 2.2717136e-05 9.1085593e-05)
(-0.0001576234 -5.1492577e-06 0.00014784761)
(-0.00012966179 -4.0950358e-06 0.00012911705)
(-0.00013721372 -6.7163086e-06 0.00013428138)
(-0.00014091434 -3.7333654e-06 0.00013399272)
(-0.00016201788 3.4096304e-06 0.00015379278)
(-0.00018766212 5.9828114e-06 0.00017593588)
(-0.00025175938 7.7488452e-06 0.00011251458)
(-0.00019592838 3.0445167e-05 9.6033582e-05)
(-0.00014786302 -6.593066e-06 0.00014031914)
(-0.00022237802 3.222582e-05 9.8890918e-05)
(-0.00017030712 2.0837941e-06 0.00015796376)
(-0.0001412393 -5.8064731e-06 0.00013604514)
(8.5805323e-06 -1.2707599e-05 -5.3062988e-06)
(-0.00023706397 4.5069026e-07 0.00011210508)
(-0.00018426996 2.0028529e-06 0.00017816861)
(-0.00014503833 -5.1999168e-06 0.00014019921)
(-0.00014031415 -3.6015712e-06 0.00013190842)
(-0.00013422254 -2.8970972e-06 0.00012873721)
(-0.00015651058 -7.0198415e-06 0.00014655229)
(-0.00011510898 -5.0915328e-06 0.00010897764)
(-0.00015046318 -2.4583248e-06 0.00013259647)
(-0.00014331624 -3.2723849e-06 0.00013301324)
(-0.00014329978 -6.8527454e-06 0.00013624972)
(-0.00013627705 -6.8462327e-06 0.00012998784)
(-0.00025883267 7.0714508e-06 0.00011882005)
(-0.00016943869 -1.2541648e-06 0.00015629503)
(-0.00011504632 -5.2871635e-06 0.00010845029)
(-0.00015557426 1.2261293e-06 0.0001177618)
(-0.00017392033 7.9787055e-06 0.00015670423)
(-0.00012795557 -2.7861243e-06 0.00011826689)
(-0.00010069836 -6.0893403e-07 9.576781e-05)
(-0.00016177072 -4.3830695e-06 0.00014882697)
(-0.00012582512 -3.5622609e-06 0.00011773968)
(-0.00016160201 1.3939083e-06 0.00015021211)
(-4.8994787e-05 -2.3711337e-06 4.3393901e-05)
(-0.00027665921 -3.2956118e-05 0.00018154946)
(-0.00013884416 -4.7408225e-06 0.00012913997)
(-6.7038232e-05 -7.3532749e-06 5.9024396e-05)
(-9.0928516e-05 1.8413712e-05 7.0004416e-05)
(-0.00017953486 7.1433312e-06 0.00017693107)
(-0.00013044508 5.5678442e-06 0.00013207805)
(-0.0001249602 -2.7270076e-06 0.00011701807)
(-0.00018492177 7.4048704e-06 0.00016640954)
(-0.00012453375 -4.0969194e-06 0.00011555445)
(-5.4058168e-05 1.6475838e-05 2.9268416e-05)
(-0.00013880373 -4.367555e-06 0.00013153793)
(-0.00012309352 -3.7437397e-06 0.00011422661)
(-0.00013277426 -2.9928057e-06 0.00012389477)
(-4.7047266e-05 1.9457455e-05 2.8315769e-05)
(-0.00015236383 -2.1804441e-06 0.00013754713)
(-0.00015928021 -1.2452793e-06 0.00015593868)
(6.0927683e-05 1.9965403e-05 -4.701468e-05)
(-0.00017682204 3.733299e-07 0.00016028629)
(-5.7374933e-05 1.2942868e-05 3.07343e-05)
(-9.8143814e-05 -3.2339442e-06 9.3026895e-05)
(-0.00015036674 7.7509374e-07 0.00013651997)
(-6.0360943e-05 -2.8947329e-06 5.0946015e-05)
(-0.00021900547 5.653242e-06 0.0001413531)
(-0.00012712909 -3.8252785e-06 0.00012576964)
(-0.00014382232 -3.8147776e-06 0.00013554277)
(-0.00016190669 2.3143182e-06 0.00015246284)
(-0.00015934903 -5.4687547e-06 0.00015391562)
(-0.00012227329 -4.4599127e-06 0.00012194751)
(-0.0001421613 -2.6249476e-06 0.00013410763)
(-0.00025040811 -4.7040384e-05 0.000161402)
(-0.00018894157 4.3872958e-06 0.00018527126)
(-0.000130807 -1.2866533e-06 0.00012436222)
(-0.00015596582 1.1220905e-06 0.00013469147)
(-0.00019322196 5.3296199e-06 0.00018407228)
(-6.6675917e-05 -2.1672765e-06 5.3258983e-05)
(-0.00017592747 3.430434e-07 0.00011134297)
(-0.00017625764 5.6914285e-06 0.00015566725)
(-0.00013899185 -7.2776851e-06 0.00014021701)
(-0.00014911911 -9.4469996e-06 0.00014705058)
(-0.00015743402 4.4165176e-06 0.00015146981)
(-0.00020272916 4.5457642e-06 0.00018569865)
(-0.00016918377 4.4088087e-06 0.00015672921)
(-0.00016942733 1.1275651e-05 0.00016113975)
(-0.00012959882 1.0272355e-05 9.2041717e-05)
(-0.00018498713 4.0810473e-06 0.00017915139)
(-5.0050131e-05 -6.0578873e-06 4.3931766e-05)
(-5.6370794e-05 -4.4276109e-06 4.9138213e-05)
(-0.00019726856 3.0293763e-06 0.00018548965)
(-0.00018515043 1.1671645e-05 0.00017415247)
(-0.00014684409 -4.9340355e-06 0.00013740431)
(-0.00018854955 6.4984153e-06 0.00012187633)
(-0.00020097507 4.1518286e-06 0.00018964916)
(-0.00020512223 4.639139e-06 0.0001893498)
(3.3190882e-05 -3.4815686e-05 -3.4322165e-05)
(-0.00017952292 8.1461805e-06 0.00016755541)
(1.8880975e-05 4.2295687e-05 -2.9632562e-05)
(-0.0002645811 -2.0781724e-05 0.00022642154)
(-0.00020937485 6.2378972e-06 0.00019469374)
(-0.00017070121 2.9134149e-06 0.00016876615)
(-0.00016116415 3.5551576e-06 0.00015375294)
(-0.00015575954 5.5705008e-06 0.00014760649)
(-0.00019334396 5.6043996e-06 0.00018835985)
(-0.00017056104 2.5570469e-06 0.00016106816)
(-3.6793376e-05 1.9445999e-05 2.3103831e-05)
(-0.00015218946 4.3052305e-06 0.00014976977)
(-0.00016787286 -7.7933772e-06 0.00015775887)
(-0.00018656251 9.1259634e-06 0.00017709655)
(-0.00021178632 5.2223247e-06 0.00020133248)
(-0.00017477196 -1.9067088e-05 9.7914346e-05)
(-0.00020131227 5.2903971e-06 0.00019726531)
(-0.00019807046 9.6074711e-06 0.00018799232)
(-0.00020423656 4.8219996e-06 0.0001948903)
(-0.00017608356 2.4826068e-06 0.00016866512)
(-0.00017032219 -5.7906852e-06 9.5090901e-05)
(6.3449085e-05 3.3735898e-07 -5.6671394e-05)
(-4.3865699e-05 -1.5854129e-05 6.4589356e-05)
(-0.00014317061 -6.2553992e-06 0.00013146273)
(-0.00018607915 -1.2016007e-06 0.0001702169)
(-0.00014473746 -5.1972901e-06 0.0001312994)
(-0.00019534776 -2.5984398e-05 0.00010119712)
(-0.00017285842 1.3784673e-05 0.00010919179)
(-0.00017620906 -1.013967e-06 0.00016611116)
(-0.0001904597 1.0245561e-05 0.0001835359)
(-0.00016636213 1.2914224e-05 0.00010353209)
(-0.00018890227 2.6485716e-06 0.00018981849)
(-0.00016881832 2.0934175e-06 0.00015893814)
(-0.00015258594 -8.6153346e-06 0.00014741975)
(-0.00017042447 6.8075851e-06 0.00016629319)
(-0.00017591248 6.1449166e-06 0.00017131923)
(-0.00021080205 3.1118411e-06 0.00020344739)
(-0.00018709246 -8.880707e-07 0.00017327937)
(-0.00016620792 1.7376662e-06 0.00015986461)
(-0.00016895498 8.3002529e-06 0.00011002409)
(-0.00016877453 -9.6226458e-06 0.00010605506)
(-8.6923113e-05 -3.7450074e-05 4.3910562e-05)
(-0.00018639598 1.8260121e-06 0.00019017108)
(-0.0001627524 -7.2500055e-06 0.00015595652)
(-0.00016333243 1.9176534e-06 0.00016601234)
(-0.00022857718 -4.746326e-05 0.00012446918)
(-0.00014701381 -4.6613808e-07 0.00014481194)
(-0.00019141109 -1.2462109e-06 0.0001877308)
(-0.00023262145 -1.1605527e-05 0.00019682404)
(-0.00014696397 -6.0854851e-07 0.00015066401)
(-0.00017088763 -7.8659644e-06 0.00015852123)
(-0.00017012635 6.7648663e-07 0.00016540794)
(-0.00019409079 6.5287624e-06 0.00017842121)
(-0.00019747278 1.9391378e-05 0.00016032181)
(-0.00012785691 2.8630034e-08 0.0001184087)
(-0.00022169429 -1.8000605e-05 0.00017778677)
(-0.00017562124 6.1758051e-09 0.00015890145)
(-0.000157073 -3.5111124e-06 0.00015423966)
(-1.7017844e-05 -2.0215636e-05 4.8223954e-05)
(-0.00016659424 -1.7764318e-06 0.00015766247)
(-1.5999419e-05 -1.8001196e-05 4.3857075e-05)
(-0.00016773017 -5.8628799e-08 0.00016113251)
(-0.00024055974 -3.2313933e-05 0.0001659605)
(-0.00022889378 -9.8760802e-06 0.00012524159)
(-0.00014108614 -8.3441185e-06 0.00013349626)
(-3.1014933e-05 1.4383118e-05 1.4140554e-05)
(-0.00018011006 9.2812024e-06 0.00016447496)
(-0.00018931309 1.142168e-05 0.00017443217)
(-0.00014889877 -3.4903459e-06 0.00013113378)
(-0.00015314521 -1.2353744e-05 0.00014988194)
(-0.00019385054 9.8821555e-06 0.00017713454)
(-0.00015834073 -1.0385188e-05 0.00014976091)
(-0.00016101916 -1.2121568e-05 0.00015651053)
(-0.00016919141 -3.7294344e-05 8.7256944e-05)
(-0.00014616376 -5.9057537e-06 0.00014009804)
(-0.00013271477 -8.4474563e-06 0.00012879843)
(9.052914e-06 -6.7182404e-06 -1.7510698e-05)
(-0.00017131285 -7.0700035e-06 0.00015852035)
(-0.00014694163 -4.4590376e-06 0.00013962516)
(-0.00015931252 -5.4568522e-06 0.00014692471)
(-0.00017192351 -4.3794659e-05 8.862048e-05)
(-0.00013339588 -8.579926e-06 0.00013165776)
(-0.0001391152 -9.034335e-06 0.00013447237)
(-0.000161875 -5.1099863e-06 0.00014885257)
(-0.00018331706 5.7240782e-06 0.00018396261)
(-0.00013513436 -7.9534909e-06 0.00012691303)
(-0.00016297155 -6.6894835e-06 0.00015113653)
(-0.00014113368 -1.0208683e-05 0.00013883008)
(-0.0001392203 -7.1301154e-06 0.00012924739)
(-0.00013968105 -7.7853587e-06 0.00013090264)
(-0.00014755277 -5.7320134e-06 0.0001422523)
(-0.00015041127 -5.7172106e-06 0.00014357248)
(-0.00013428759 -6.0437334e-06 0.00012317458)
(-7.4218919e-05 8.9275279e-06 6.2132897e-05)
(-0.00015184702 -4.8671043e-06 0.00014309949)
(-8.4092896e-05 9.1464976e-06 7.0416778e-05)
(-0.00014735624 -5.2054708e-06 0.0001426729)
(-0.00012854797 -6.6781242e-06 0.00012913743)
(-0.00013339142 -5.6300746e-06 0.00013547932)
(-0.00015164074 5.6352629e-06 0.00015036322)
(-0.00013496749 -3.5711791e-06 0.00013313699)
(-8.4563972e-05 1.3826565e-05 6.5440942e-05)
(-0.0001543386 -3.5987113e-06 0.00014431923)
(-0.00014460492 -6.4259812e-06 0.00014425808)
(-0.00020156357 6.9505099e-06 0.00019138928)
(-0.00015820099 -6.3197581e-06 0.00014706385)
(-0.00018329294 1.1911623e-05 0.00017788032)
(-0.00014754567 -4.9509422e-06 0.00014308269)
(-0.00014414494 -8.3700595e-06 0.00013959499)
(-0.00015869278 -5.0665887e-06 0.00014880991)
(-0.00015374202 -8.5537392e-06 0.00014963402)
(-0.00014225672 -7.8896107e-06 0.00013921807)
(-0.0001452844 -8.9958655e-06 0.00013647086)
(-0.0001496254 -1.1238667e-05 0.00014147111)
(-0.00025662513 1.1076028e-05 0.00026234241)
(-0.0001928397 1.1607486e-05 0.0001831431)
(-0.00014506518 -6.4983947e-06 0.00014253336)
(-0.0001336642 -3.0094712e-06 0.00013005763)
(-2.2532868e-05 -2.1636773e-05 4.8165497e-05)
(-0.00015222861 -5.458797e-06 0.00014484451)
(-0.00013460016 -5.1360438e-06 0.00013044868)
(-0.00014503837 -7.2703627e-06 0.00014142259)
(-0.00013698236 1.5245569e-07 0.00013645529)
(-0.00015625614 -6.5227786e-06 0.00015734889)
(-0.00014821134 -8.727617e-06 0.00014828788)
(-0.00014487609 -7.8835398e-06 0.00013553295)
(-0.00013821504 -4.1313232e-06 0.00013101034)
(-0.00015694223 -7.348988e-06 0.0001451322)
(-0.00014909985 -1.0763002e-05 0.00013952829)
(-0.00023130024 -6.3032581e-06 0.00012662629)
(-0.00015173609 -1.2475198e-05 0.00014793177)
(-0.00011775044 -6.9969356e-06 0.00011774048)
(-0.00013388657 -1.0767993e-05 0.00013502318)
(-0.0001451533 -4.0344506e-06 0.00014946164)
(-0.0001269234 4.3320437e-06 0.00010963988)
(-0.00014620605 -4.7319856e-06 0.00013990236)
(-0.00013479113 -4.0414608e-06 0.00012968279)
(-0.00018052449 -2.7152126e-05 9.5288939e-05)
(-0.0001187006 -7.7983658e-06 0.00012196093)
(-0.00024302604 6.9707427e-06 0.00023645301)
(-0.00014544269 -6.5875266e-06 0.0001438684)
(-0.00015921197 -4.0022655e-06 0.00015264357)
(-0.00014445307 -5.2680253e-06 0.00014399059)
(3.9858504e-05 3.4007887e-05 -5.1016316e-05)
(-0.00018746958 8.4328859e-06 0.00018141247)
(-0.00020761634 7.4324595e-06 0.00019392756)
(2.9099851e-05 -2.4915885e-05 -3.6504149e-05)
(-0.0002243721 2.1686539e-05 0.00018862364)
(-0.00017855402 8.2129702e-06 0.00015814569)
(-0.00012058772 5.8664986e-06 8.4263919e-05)
(-0.00017920475 1.1379338e-05 0.00016727269)
(-0.00017391514 1.0426381e-05 0.00015736828)
(-0.00018200817 6.8339634e-06 0.00016040014)
(-0.00017967841 1.2850458e-05 0.00016123705)
(-0.00018750787 1.2588055e-05 0.00017026823)
(-0.00018968726 9.4164072e-06 0.0001642309)
(-0.00017691142 1.528186e-05 0.00016305872)
(-0.00012992118 -5.0924887e-05 5.3977577e-05)
(-0.00019252453 1.150696e-05 0.00018560075)
(-0.00018527052 1.2465572e-05 0.00016103226)
(-5.4992785e-05 1.6793384e-05 3.9246937e-05)
(-0.00018022266 1.2871493e-05 0.00016202869)
(-0.00016723339 1.1857729e-05 0.00015625213)
(-0.00025085475 1.7878751e-05 0.00026313223)
(-0.00021947276 -2.3479397e-05 0.00017945995)
(-0.00022328852 -8.5275448e-06 0.00017963904)
(-0.00017174206 1.1432985e-05 0.00016201927)
(-0.00019353562 -8.6079845e-07 0.0001062994)
(-0.00028214825 -3.559445e-05 0.00019173079)
(-0.00016438993 1.2619211e-05 0.00015397767)
(-0.00018165416 8.7851959e-06 0.00017216533)
(-0.00017330291 1.151641e-05 0.00016978957)
(-0.00016574865 1.1192384e-05 0.00016489309)
(-0.00020087846 1.1998361e-05 0.00018580718)
(-0.00017665226 8.9979986e-06 0.00017174082)
(-0.00018075731 1.3576157e-05 0.00017193976)
(-3.3552123e-05 9.7734412e-06 3.298556e-05)
(-0.00020607591 1.1539513e-05 0.00020534217)
(-0.000159927 7.6823035e-06 0.0001579282)
(-0.00016979318 1.5772829e-05 0.00015950769)
(-0.00021550533 1.0386928e-05 0.00021847999)
(-0.00015988014 1.3472284e-05 0.00015808552)
(-0.00016759594 1.4386412e-05 0.00015251179)
(-0.00014911078 3.0395715e-06 0.00013007104)
(-0.00021386636 1.8763286e-05 0.00016804347)
(-0.0001623672 1.5095951e-05 0.00015564951)
(-0.00019743997 1.2675674e-05 0.00019347837)
(-0.00016694281 1.566549e-05 0.00016380625)
(-0.00019254809 8.7205929e-06 0.0001845304)
(-0.00017076054 1.4779612e-05 0.00015800837)
(-0.00017276258 1.4034037e-05 0.00016027658)
(-0.0001756257 1.207029e-05 0.00016882761)
(-0.00016190659 1.4711289e-05 0.00015449595)
(-0.00020348804 1.0012388e-05 0.00019293953)
(-0.00016298103 1.1613036e-05 0.00015019822)
(-0.00017927147 6.9592252e-06 0.00016977545)
(-0.00019622173 8.0717162e-06 0.00018571623)
(-0.00017370256 1.1895152e-05 0.0001590527)
(-0.00013924769 1.1481791e-05 0.00013756709)
(-0.00017140078 8.9235115e-06 0.00015248517)
(-0.00017134135 1.141446e-05 0.00016487884)
(-0.00015061991 -7.7654648e-06 0.0001362336)
(-0.0001751481 9.2060785e-06 0.00016523935)
(-0.00014547533 1.3010533e-05 0.00014741377)
(-0.00018109231 1.526234e-05 0.00017008867)
(-0.00016645914 9.3395941e-06 0.00016557351)
(-1.3161648e-05 -1.114199e-05 3.3248605e-05)
(-8.6163645e-05 -3.2652039e-05 3.9847451e-05)
(-0.0001543285 1.1570231e-05 0.00016274921)
(-0.00017198887 7.0101718e-06 0.0001646345)
(-0.00010781784 -1.4655616e-06 0.0001178951)
(-0.00016877538 1.0812686e-05 0.00016292606)
(-0.00017514987 1.1145514e-05 0.00017679007)
(-0.0001675993 8.7129758e-06 0.00016566799)
(-0.00017084877 1.3325927e-05 0.00016009405)
(-1.492013e-05 -5.4341445e-06 3.5246374e-05)
(-0.00013213186 -5.3885432e-06 0.00011833597)
(-0.00016815128 9.470783e-06 0.00016522798)
(-0.00017533673 8.8180737e-06 0.00016811323)
(-0.00017454513 1.4276436e-05 0.0001643611)
(-0.00017549732 1.2850021e-05 0.00016176598)
(-0.00019026807 1.7110472e-05 0.00017667627)
(-0.00017674881 9.0111498e-06 0.0001690876)
(-0.00017858748 1.3357758e-05 0.00016767567)
(-0.00014133906 -5.3224602e-06 0.0001349341)
(-0.00017711973 1.1209358e-05 0.00016833257)
(-0.00013589989 -8.1011275e-06 0.0001284509)
(-0.00014694908 -4.9383372e-06 0.00014077306)
(-0.00015464469 -6.6249635e-06 0.00013854017)
(-8.473276e-05 -3.2663684e-05 4.0249659e-05)
(-0.00015158322 -6.5572766e-06 0.00014497796)
(-0.00014239004 -8.7843465e-06 0.0001360128)
(-1.096704e-05 -1.2180045e-05 4.2379275e-05)
(-0.00014269605 -4.0457447e-06 0.00013920015)
(-0.00015751576 1.1512876e-05 0.00014593173)
(-0.00017413464 1.1876697e-05 0.00016288233)
(-0.00018392051 4.5838681e-06 0.00017047609)
(-0.00018023291 9.2044068e-06 0.00017805216)
(-0.00017581274 8.1844377e-06 0.0001654099)
(-0.00015893797 8.1518575e-06 0.00014659896)
(-0.00016674305 7.4881614e-06 0.00016438102)
(-8.0412919e-05 2.5022812e-06 6.7938938e-05)
(-0.00019012619 7.642017e-06 0.00017211448)
(-0.00017767963 -1.0018641e-06 0.00016367307)
(-0.00017795548 -7.0720809e-06 0.00016856356)
(-0.00018495508 1.2157262e-05 0.00017211085)
(-0.00014392837 7.9151367e-06 0.00013202785)
(-0.00021319649 2.3160576e-05 0.00016547776)
(-0.00018538396 8.0309338e-06 0.00017909964)
(-0.0001710886 8.0578615e-06 0.00015828722)
(-0.00017045214 6.8039902e-06 0.00017451578)
(-0.00025744848 3.4591488e-06 0.00023766827)
(-0.00013791824 -5.6158887e-06 0.00013518493)
(-0.00016034258 1.0662108e-05 0.00013536649)
(-1.2106094e-05 -1.6450757e-05 4.5009785e-05)
(-0.00017587427 6.3679591e-06 0.00018001706)
(-7.6046459e-05 1.6528473e-05 5.904979e-05)
(-0.00018078725 6.0652094e-07 0.00017035624)
(-0.00016892345 9.9292872e-06 0.0001668982)
(4.0899112e-05 4.0786004e-05 -5.744158e-05)
(-0.00019449501 8.867819e-06 0.00018934898)
(-0.00018892262 8.1062954e-06 0.00018534991)
(-7.9834933e-05 1.4881079e-05 5.9197992e-05)
(1.4256993e-05 -2.0281713e-05 -2.0455188e-05)
(-0.00018334681 6.0316972e-06 0.00018197801)
(-0.00020163938 7.4686123e-06 0.00019120307)
(-0.00016475414 1.0412937e-05 0.00017003809)
(-0.0001553817 -3.0334345e-06 0.00015543555)
(-0.00017748383 4.4771205e-06 0.00017252427)
(-0.00016027484 6.3728287e-06 0.00016278442)
(-0.0001651019 4.8407635e-06 0.00016490265)
(-0.00019387904 1.2229831e-05 0.00018969039)
(-2.3020077e-05 -2.5806539e-05 1.3833471e-06)
(-1.761436e-05 -2.7101539e-06 3.5182565e-05)
(-2.6448758e-05 -2.4938228e-05 9.2679234e-06)
(-0.00017665323 6.6009538e-06 0.00017599159)
(-0.00019155664 5.9821038e-06 0.000194665)
(-0.00019771153 8.7318269e-06 0.00018952102)
(-0.00017492972 -5.3258982e-06 0.00016960125)
(-5.2733855e-06 -1.9606191e-05 3.279254e-07)
(-0.00016732712 5.3135448e-06 0.00016221799)
(-0.00016141266 9.6541579e-06 0.000163988)
(-0.00018362695 7.3342415e-06 0.0001797725)
(-0.0002917573 2.4825819e-05 0.00029219387)
(-0.00012499531 -2.3035172e-06 0.00012789091)
(5.8337e-05 4.8448388e-05 -5.3766812e-05)
(-0.00014917195 -3.8238693e-06 0.00014729254)
(4.4975471e-05 4.8207528e-05 -5.2551437e-05)
(-0.00016465966 9.9754593e-06 0.00016594659)
(-0.0001315676 -4.6139015e-06 0.00013185086)
(-0.000200832 4.5290296e-06 0.00019781009)
(-0.00020022706 6.7707773e-07 0.00018722215)
(-0.00025723378 -2.9548716e-05 0.00025085271)
(-0.00015108132 -3.8664314e-06 0.00014773709)
(-0.00015760599 3.6333171e-06 0.00016527954)
(-0.0002056403 6.2046766e-06 0.00019989755)
(-0.0001676736 6.2478352e-06 0.0001659517)
(-0.00019338453 7.2708795e-06 0.00018296622)
(-0.00013496066 -9.2848447e-08 0.00013350017)
(-0.00018137249 1.6210281e-06 0.00018290961)
(-0.00015868401 4.9985898e-06 0.00016128338)
(-0.00018833578 6.932554e-06 0.00019397484)
(-0.00015696709 -4.767863e-06 0.00015154153)
(-0.00018460937 7.7125438e-06 0.00018517086)
(-0.00017667185 6.5301472e-06 0.00017352403)
(-0.00012492442 -1.7085024e-06 0.00012715517)
(-0.00010915523 1.9789335e-06 0.00010343627)
(-0.00019344217 5.422778e-06 0.00018879315)
(-0.00019138783 3.5216256e-07 0.00018559933)
(-0.00019677182 5.9648741e-06 0.00019293995)
(-0.00015013475 6.7522102e-06 0.00015453459)
(-0.00016959599 4.7444566e-06 0.00017127076)
(-0.00015081044 3.9974592e-06 0.00015238122)
(-0.00019376606 6.7141845e-06 0.00018855634)
(-0.00018340974 4.697027e-06 0.00018525912)
(-0.00016771779 7.2699022e-06 0.00016781971)
(-0.00016699167 1.5969962e-05 0.000142065)
(-0.00015193927 -5.1424566e-06 0.00013699725)
(-0.00018736295 5.0751945e-06 0.00017533237)
(-8.2264691e-05 -1.7098584e-07 8.5845347e-05)
(-0.00016566934 6.8089997e-06 0.00016774222)
(-0.00019012316 3.5786578e-06 0.00019986019)
(-0.00014409836 -1.0407545e-05 0.00013317268)
(-0.00022262835 -1.2461235e-05 8.8600816e-05)
(-0.00020036805 2.8142445e-06 0.00019739089)
(-0.00014215444 -6.7910143e-06 0.00013344045)
(8.9934206e-06 -1.0826597e-05 -1.2298721e-05)
(-0.00016067789 8.4258367e-06 0.00016897485)
(-0.00017762368 5.8423264e-06 0.00017499359)
(-0.00019411768 8.0666998e-06 0.00019709068)
(-0.00018548023 7.0896415e-06 0.00018666385)
(-0.00015121136 -4.7309754e-06 0.00013579204)
(-2.0244185e-05 9.9717789e-07 3.3214471e-05)
(4.2074907e-05 3.8368299e-05 -3.6014373e-05)
(-0.00015613423 -4.8357654e-06 0.00014668726)
(-5.8843896e-05 -2.3553445e-05 2.7269646e-05)
(-0.00014509182 5.6773631e-06 0.00014999883)
(-0.00016564086 1.0352131e-05 0.00016383759)
(-0.00018774096 7.5298529e-06 0.00018470603)
(-0.00018378231 5.6427552e-06 0.00018467541)
(-0.00013242352 1.1673996e-06 0.0001319305)
(-0.00014046944 1.9345749e-06 0.00013764694)
(-0.00015550148 -4.5454558e-06 0.00014681905)
(-0.00018616699 4.2633449e-06 0.00017673783)
(-0.00016267234 -1.3419668e-06 0.00012234496)
(-0.00018871066 8.7826882e-06 0.00018784188)
(-0.00013491136 -7.1818534e-06 0.00012857759)
(-0.00012028578 -5.9600282e-06 0.00011033555)
(-0.00019054631 3.9193365e-06 0.00017765697)
(-0.00019492963 1.8454456e-06 0.00018950127)
(-0.00020596585 3.1778504e-06 0.0001996137)
(-0.0001820831 2.7673226e-06 0.00017525117)
(-0.0001507943 5.9814132e-06 0.00015274361)
(-0.00016455526 2.2321372e-06 0.00017246416)
(-0.00014234417 -4.4338653e-06 0.00013579003)
(-0.00020192261 1.8242865e-06 0.00019167511)
(-0.00020665464 7.0166627e-07 0.00019732595)
(-0.00015503537 1.2438957e-06 0.00015379475)
(-2.6967834e-05 4.1628421e-06 2.8919982e-05)
(-9.534385e-05 -3.6719365e-05 4.2184261e-05)
(-0.00013513497 -4.1017505e-06 0.00012375476)
(-5.2981443e-05 1.768588e-05 3.0865407e-05)
(-0.00018695113 -1.133272e-06 0.00018741662)
(-0.00021870061 3.2681776e-06 0.00020370657)
(-5.7155408e-05 1.4773099e-05 3.5866975e-05)
(-0.00020255067 1.4432418e-06 0.00019538903)
(-0.00019095284 6.4663969e-06 0.00018587213)
(-0.00015910272 6.839381e-06 0.00016190678)
(-6.9236855e-05 -2.1726599e-05 3.4988027e-05)
(-4.9769449e-05 1.8662721e-05 2.6230361e-05)
(-0.00018378221 -1.8887646e-05 0.00015384817)
(-0.00015386362 -4.2712316e-06 0.00014855255)
(-0.0001943308 4.7154045e-06 0.00019606128)
(-0.00012590206 2.8985902e-06 0.00012641277)
(-0.00019125637 5.9319361e-06 0.00018676796)
(-0.00014300121 -4.0901453e-06 0.00014430533)
(-3.8662508e-05 1.4202909e-05 1.9665553e-05)
(-0.00016335014 -5.2400838e-06 0.00015593349)
(-3.720207e-05 -1.7509774e-05 5.6135974e-05)
(-4.5548456e-05 2.047239e-06 4.1762549e-05)
(-0.00015143595 -2.5471738e-06 0.0001395858)
(-0.00017623003 1.915562e-06 0.00016851621)
(-0.00015085983 -6.5125924e-06 0.00013861799)
(-0.00015542988 8.5449539e-07 0.00013838753)
(-0.00015754766 -4.8524685e-06 0.00013904069)
(-0.00015642569 -6.1133215e-06 0.00015598718)
(-0.00023111669 3.4524937e-05 9.9044443e-05)
(-0.0001548184 -8.0302314e-06 0.00013933126)
(-0.00011768828 -6.7626396e-06 0.00011419406)
(-5.420046e-05 -1.3816518e-05 7.4015855e-05)
(-0.00011876098 1.4991675e-07 0.00011824913)
(-0.0001521328 -6.3169839e-06 0.00014286391)
(-0.0001212227 -7.8308489e-06 0.00012085901)
(-5.6480299e-05 -4.1763398e-06 7.1242821e-05)
(-0.00016371341 -5.2541552e-06 0.00015476678)
(-0.00015243107 -5.0014828e-06 0.00014231596)
(-0.00024009711 -1.2422141e-05 0.00024767245)
(-0.00013580256 -6.9084055e-06 0.00013249856)
(-0.00031739475 -1.1069366e-05 0.000310454)
(-0.00013129366 -8.9479229e-06 0.00012294171)
(-0.00017060897 -5.3668856e-06 0.00015641839)
(-0.00011462882 -7.6990561e-06 0.00011129784)
(-0.00018020824 2.4346443e-07 0.0001733845)
(-0.00014578238 -3.0940049e-06 0.00013633334)
(-0.00016401922 -4.2317309e-06 0.00015500286)
(-0.00014832059 -2.9731706e-06 0.00013935544)
(-0.00015858343 -1.2208541e-06 0.00014497522)
(-0.0001386394 -8.140083e-06 0.0001369181)
(-0.00015192902 -3.9281393e-06 0.00014353209)
(-0.00014779782 -5.5458479e-06 0.00014752038)
(-0.00013682594 -4.2272934e-06 0.00013324966)
(-0.00016442139 -5.3853676e-06 0.00015988963)
(-0.00013018622 -4.4279858e-06 0.00012925485)
(-0.00018865213 5.0482024e-07 0.00017421705)
(-0.00015633337 -1.2641017e-06 0.00014491506)
(-0.00013230633 -8.1756935e-07 0.00012792127)
(-0.00016276588 -1.5800417e-06 0.00015466342)
(-0.00015496101 -2.0461144e-06 0.00014620694)
(-0.00015432573 -3.5475421e-06 0.00015165486)
(-3.0574941e-05 1.6135327e-05 1.6757808e-05)
(-8.2829709e-05 6.312836e-06 6.2319296e-05)
(-0.00016064647 -4.8366049e-07 0.00014741687)
(-0.00015721214 -3.5779877e-06 0.00015033599)