/*--------------------------------*- C++ -*----------------------------------*\
  =========                 |
  \\      /  F ield         | OpenFOAM: The Open Source CFD Toolbox
   \\    /   O peration     | Website:  https://openfoam.org
    \\  /    A nd           | Version:  11
     \\/     M anipulation  |
\*---------------------------------------------------------------------------*/
FoamFile
{
    format      ascii;
    class       volVectorField;
    location    "10000";
    object      wallShearStress;
}
// * * * * * * * * * * * * * * * * * * * * * * * * * * * * * * * * * * * * * //

dimensions      [0 2 -2 0 0 0 0];

internalField   uniform (0 0 0);

boundaryField
{
    wall-fluid_domain
    {
        type            calculated;
        value           nonuniform List<vector> 
34907
(
(0.00039561206 6.6860139e-05 8.7975758e-05)
(0.00035724872 3.8336339e-06 0.00022124306)
(0.00045889638 -5.9884707e-05 0.00025423923)
(0.00045893574 -8.6061725e-05 0.0001941834)
(-7.806148e-06 -1.9018668e-05 -7.1965661e-07)
(0.00046595264 -9.027735e-05 0.00021114881)
(-3.6918768e-06 -1.9345058e-05 2.8333735e-06)
(0.00030531207 -6.652271e-05 0.0001258278)
(0.00039400733 -6.6463975e-05 0.00020019316)
(0.00039334432 7.9928458e-05 0.00013786867)
(0.00044643618 7.739502e-05 0.00020903683)
(0.00039364655 7.1443354e-05 0.00016797484)
(0.00042623239 -5.512911e-05 6.8593899e-05)
(0.00038400449 5.8029374e-05 5.3207088e-05)
(0.00043018834 6.4764229e-05 0.00021931045)
(0.00039170301 -6.3807868e-05 7.9069419e-05)
(0.0003228115 5.7123223e-05 6.2742059e-05)
(-7.7120995e-06 3.3219494e-05 -1.5051813e-05)
(0.00052424696 8.3477826e-06 0.000310542)
(0.00045787725 -8.5519735e-05 0.00013382289)
(0.00039929408 -7.1883473e-05 0.00019975171)
(0.00031448472 -6.8231005e-05 0.00013711005)
(0.00040517321 -1.0715196e-05 0.00024853687)
(-3.0866205e-07 6.7650575e-06 -4.3327035e-05)
(0.00037426922 7.0997148e-05 0.00011033001)
(0.00045336763 -8.2198602e-05 0.00012247391)
(0.00030889621 -6.582574e-05 0.00011992172)
(0.00039367561 7.4192467e-05 0.00017399788)
(0.00033037074 -4.7953307e-05 2.3907245e-05)
(0.0004262763 5.519196e-05 0.00022785673)
(0.00038366551 7.6264215e-05 0.00010619691)
(0.00044692467 7.7221717e-05 0.00021715844)
(0.00031381231 4.5855616e-05 3.3983619e-05)
(0.00036860282 -4.6438477e-05 0.00020167999)
(0.00037147245 -2.8965362e-05 0.0002226302)
(0.00043411334 6.4703717e-05 0.0002317576)
(0.00042307919 3.4457927e-05 0.00025283431)
(0.00036519543 -5.3470449e-05 0.00019941325)
(0.00027270441 -4.6002341e-05 5.8487561e-05)
(0.00046367899 -8.3620779e-05 0.0002029879)
(0.0004418331 -6.5449201e-05 9.9689722e-05)
(0.00041862084 -2.4962116e-05 0.00026376067)
(0.00043222556 6.6905176e-05 8.5264054e-05)
(0.00035936417 1.6398329e-05 0.00021931849)
(0.00021887705 3.2977248e-05 8.4968857e-05)
(0.00023551383 -1.074181e-05 2.184569e-05)
(0.00040412434 -6.8325158e-05 0.00019413683)
(0.00034585597 6.8967825e-05 0.00013333838)
(0.00044821541 -4.2905054e-05 0.00026245496)
(0.00028863582 3.8519873e-05 -7.1971435e-06)
(0.00034768575 7.5319942e-05 0.00014548622)
(0.00047514341 -8.3698419e-05 0.00021418171)
(0.00044590656 8.8216805e-05 0.00014796055)
(0.00038616568 3.1815725e-05 0.0002309095)
(0.00040665326 -7.1223644e-05 0.00011270597)
(-2.1555425e-05 -3.8120874e-05 7.1707621e-07)
(0.00041194904 -7.5769975e-05 0.00017239043)
(0.00044526517 8.5708916e-05 0.00013657385)
(-2.2896739e-05 -4.0962003e-06 1.4072693e-06)
(1.010052e-05 8.6107584e-06 -4.4646473e-06)
(-6.7847411e-07 -1.1824061e-06 4.2794697e-06)
(-5.1369694e-07 3.3141331e-06 7.8416039e-07)
(0.00045116754 -8.8389329e-05 0.00014547261)
(-5.7863845e-06 3.0133508e-05 -1.5467895e-05)
(-1.8112857e-05 5.3693382e-06 -1.1763182e-05)
(0.00039139047 -4.9589347e-05 3.1179573e-05)
(0.00043861598 8.1303707e-05 0.00018884008)
(0.00041234013 6.9687677e-05 0.0001060776)
(4.8835274e-06 7.1815068e-06 -1.8814996e-06)
(0.00043331588 -6.8538561e-05 0.00010702305)
(0.00037763841 -7.0665725e-05 0.00013735743)
(0.00035336095 4.651428e-05 2.9839318e-05)
(0.00041890036 6.9476069e-05 0.00020246903)
(0.00037412387 -7.0611969e-05 0.00015012501)
(0.00036682585 3.8468173e-05 0.00021761014)
(0.00042579965 7.8199989e-05 9.635801e-05)
(0.00045627479 -5.3140347e-05 0.00026115856)
(0.00041514855 7.0482333e-05 0.00019636051)
(0.00030576699 -2.5296934e-05 0.00018631301)
(0.00044191423 8.7541759e-05 0.00015853414)
(0.00038400646 3.0826927e-05 0.00023064209)
(0.00046822074 -6.4981357e-05 0.00024227634)
(-1.8435102e-06 -6.9081228e-06 -2.7566913e-06)
(0.00038432428 5.6697119e-05 0.00020161351)
(0.00040850341 -7.1215781e-05 0.00020567738)
(0.00039664737 -5.3421816e-05 7.886085e-05)
(0.00043824018 -6.0812742e-05 9.4196137e-05)
(0.00038205159 -7.8553884e-05 0.00014746576)
(0.00041166543 -7.479413e-05 0.00017447719)
(0.00042129377 5.9810854e-05 7.426407e-05)
(0.00038635368 5.9516514e-05 0.00020004901)
(0.000388536 -3.3990863e-05 0.00022687478)
(0.00042654041 5.9020852e-05 8.0865504e-05)
(0.00036556791 3.1781658e-05 0.0002142755)
(0.00044906481 8.345019e-05 0.00018992368)
(0.00044930116 8.2010325e-05 0.00017997686)
(0.00044911903 8.2832251e-05 0.00012436181)
(0.00044037173 8.0982541e-05 0.00013080969)
(0.00041382675 -7.7964656e-05 0.00017114984)
(0.00042010453 4.8344801e-05 0.00023830163)
(0.00040927216 -7.5836589e-05 0.00012186514)
(-9.332299e-07 -2.1792784e-05 7.9275328e-07)
(0.00025753892 -2.1365309e-05 4.8150954e-05)
(0.00045287967 -8.723995e-05 0.00014454229)
(0.00048207331 -5.8258822e-05 0.00026547118)
(0.0002905276 2.0173451e-05 4.8668216e-05)
(0.00052542882 8.1833105e-06 0.00030928448)
(0.00043428563 -6.725858e-05 0.00010459215)
(0.00047776422 -8.001065e-05 0.00021004036)
(0.00036311532 -6.5844123e-06 0.00022453733)
(0.00043976662 8.4367299e-05 0.000152287)
(0.00043542888 6.8240789e-05 9.8157472e-05)
(0.00035952879 1.4155233e-05 0.00022317577)
(0.00040757721 4.0327434e-05 0.00023301833)
(0.00042127749 -1.620917e-05 0.00026008965)
(0.00043351641 8.4950966e-05 0.00016188256)
(0.00043530332 8.2647435e-05 0.00014069744)
(0.00042480025 -4.339779e-05 0.00023893525)
(0.00033048541 -6.1982973e-05 0.00012510206)
(0.00041443303 -6.577592e-05 0.00020578918)
(0.00049754805 5.9750635e-05 0.00026691516)
(0.00046425142 -6.2807531e-05 0.00024198646)
(0.00029018421 -3.0547023e-05 6.590282e-06)
(0.00030063749 4.2088115e-05 -6.5470942e-06)
(0.00040148652 -7.0077972e-05 0.00019640214)
(0.00045372296 -8.6003641e-05 0.00015665271)
(0.00033618275 -6.7331667e-05 0.00013417657)
(0.00049264865 5.3701602e-05 0.00026832844)
(0.00043351711 -7.6802252e-05 0.00017434769)
(0.00048032328 -6.1090479e-05 0.00026550835)
(0.00043754234 -7.7647342e-05 0.00018915626)
(0.0004112405 6.7819368e-05 0.00019115827)
(0.0004630389 7.959334e-05 0.00011997124)
(0.00044043697 7.2133901e-05 0.00011288341)
(0.00028284572 -3.9137422e-05 4.0321358e-05)
(2.0637494e-06 1.8902309e-07 2.1212884e-06)
(0.00038355724 5.1768914e-05 3.6801801e-05)
(9.6360978e-06 3.8753852e-05 -2.2777216e-05)
(0.0003959565 7.258191e-05 0.00016061171)
(0.00038968477 5.6479868e-05 0.00019546895)
(0.00036630505 -1.1715187e-06 0.00023182642)
(0.00041228481 -7.2391059e-05 0.00011054835)
(0.00040557838 -7.3924728e-05 0.00011855521)
(0.00030376685 -4.2887865e-05 4.1290541e-05)
(0.0002459576 3.9359053e-05 7.4363907e-05)
(0.00027472552 -4.7308745e-05 3.7305338e-05)
(0.00041375768 7.2902579e-05 0.00018699001)
(0.00040794525 7.2753838e-05 0.00015030809)
(0.00023133481 3.5546205e-05 6.660574e-05)
(-1.8111346e-05 -3.4498787e-05 -4.6996938e-07)
(0.00038624884 6.1445736e-05 0.00018917635)
(7.8718802e-07 2.115438e-05 -9.5631403e-06)
(0.0002718618 -3.7188295e-05 1.1603782e-05)
(-1.2488814e-05 2.2738596e-06 -1.1156627e-07)
(-2.81529e-05 -3.9977816e-05 1.0844645e-05)
(8.467922e-06 1.204083e-05 6.4050739e-06)
(0.00029917194 3.4661157e-05 2.5193663e-05)
(4.4370987e-06 8.6980137e-06 1.13629e-06)
(9.4658755e-06 6.9999273e-06 2.929958e-06)
(-6.3708117e-06 -2.2659857e-05 -1.659449e-06)
(1.696744e-06 6.111242e-06 -2.978545e-06)
(0.00040519152 7.6815359e-05 0.0001604312)
(0.00039124675 -4.8199571e-05 8.3757504e-05)
(0.0001136494 1.7896986e-05 4.5722614e-05)
(0.0004909356 -6.3191286e-05 0.00010538436)
(0.00033632609 -3.853333e-05 2.0832036e-05)
(0.00034211201 3.7792292e-05 2.8278602e-05)
(6.6223144e-06 -1.2373125e-05 -2.2521076e-05)
(0.00044087969 -7.5132879e-05 0.00016686037)
(0.00040294544 5.4678572e-05 7.0257398e-05)
(0.0004430009 5.734488e-05 9.9095847e-05)
(0.00044156496 -7.9360006e-05 0.0001753855)
(0.0003937838 -6.1554287e-05 0.00010114436)
(7.1790364e-05 -1.086259e-05 1.4582735e-05)
(0.00027392898 -2.8531463e-05 4.2833347e-05)
(-6.6405447e-06 -1.5443437e-05 -4.6740491e-06)
(0.00048047317 -7.1142095e-05 0.00024192715)
(0.00023999004 2.374557e-05 6.9667041e-05)
(0.00047421487 -6.2927868e-05 0.00024393678)
(0.00049685239 6.2698863e-05 0.00026057504)
(0.00043544252 7.7461462e-05 0.00013588919)
(0.00039833337 -6.3255457e-05 0.00018960235)
(0.00036058319 1.6651012e-05 0.00022160229)
(0.00042307643 -2.1405377e-05 0.00025771639)
(0.00031952378 -4.029393e-05 3.547228e-05)
(0.00047573498 -8.2432612e-05 0.00019930274)
(0.00029247535 -3.7242707e-05 5.106957e-05)
(0.00031789339 -3.899765e-05 3.5213096e-05)
(0.00029951772 -1.9586961e-05 5.1589904e-05)
(0.00025604976 1.2854685e-05 8.4610592e-05)
(0.00047148547 -8.132246e-05 0.00015865389)
(0.00025488199 3.73103e-05 6.6561604e-05)
(0.000491632 6.3940373e-05 0.00025397274)
(0.00045485586 6.6834764e-05 0.00010887402)
(0.00017464251 -3.818194e-05 5.7445119e-05)
(0.00028642899 -2.073599e-05 5.8983795e-05)
(0.0002690755 2.5211616e-05 8.4119796e-05)
(-3.1284071e-06 -3.3802718e-06 -2.4934429e-06)
(0.00046484376 8.7209896e-05 0.00013373288)
(0.00027711163 4.0585224e-05 6.9971606e-05)
(0.0002906854 5.277685e-05 5.9825996e-05)
(0.00036409135 1.2511006e-05 0.00022405087)
(-1.4756481e-06 -2.047856e-05 5.2587498e-07)
(0.00042539472 -1.6256478e-05 0.00025758242)
(0.00043882108 8.5970578e-05 0.00014905129)
(0.00046385057 -7.8817058e-05 0.00014651291)
(0.00034232758 -4.7210713e-05 3.2710723e-05)
(0.00030980801 3.9828782e-05 4.4150483e-05)
(0.00035599722 4.3339652e-05 2.7585501e-05)
(0.00043331908 -5.2352304e-05 5.690634e-05)
(-2.2950285e-05 -4.1853643e-05 7.1797593e-06)
(0.00016699525 1.2897109e-05 5.9758871e-05)
(5.4659086e-06 -3.3300248e-06 -4.1940244e-05)
(0.00040681094 -7.2273486e-05 0.0001862097)
(0.00046716988 -8.1902242e-05 0.00016325922)
(4.6407197e-06 3.3471471e-05 -4.0773045e-06)
(-1.2935314e-05 -1.8097697e-05 7.8234886e-06)
(-9.2341722e-06 -4.0877001e-05 8.4660111e-06)
(0.00044595893 7.2127548e-05 0.00019448749)
(8.2337445e-06 3.0336752e-05 -3.8737015e-05)
(0.00027109099 -1.949668e-05 3.1413006e-05)
(0.00031097689 -2.4534558e-05 2.9277654e-05)
(0.0004442162 6.7186074e-05 0.00020860882)
(0.00029457126 2.1708708e-05 2.9088777e-05)
(0.00027020979 2.5448228e-05 5.1951758e-05)
(1.1271953e-05 1.5032153e-05 4.9056494e-06)
(7.8294666e-07 9.149973e-06 9.425398e-06)
(1.0702153e-05 1.5051244e-06 -5.4954357e-06)
(7.660419e-06 1.1414742e-06 -1.1532307e-05)
(1.7048411e-05 4.1016613e-05 -3.3020405e-05)
(0.00024023453 -2.9208105e-05 3.1382655e-05)
(0.00028164412 3.6811566e-05 6.234621e-05)
(0.0002837121 -1.4416873e-05 2.6233793e-05)
(0.00032073124 -1.9343758e-05 1.9449609e-05)
(0.00026961404 -5.5967129e-05 5.024511e-05)
(0.00025199882 1.6232928e-05 3.9477159e-05)
(1.497966e-05 2.2979759e-06 3.7361074e-06)
(1.6842187e-05 3.6749885e-05 -2.8881739e-05)
(0.00025367489 2.2537526e-05 4.1824534e-05)
(0.00037793734 -3.594869e-05 1.3378827e-05)
(0.00045575848 7.2767211e-05 0.00020462658)
(0.00045913271 7.4524595e-05 0.00011891478)
(0.00040390465 7.2200225e-05 0.00015647607)
(0.00025782869 2.2346656e-05 3.8697156e-05)
(1.5910737e-05 1.4871319e-05 -4.3783621e-05)
(1.898712e-05 2.2626313e-05 -3.9434577e-05)
(0.00042404987 7.1328412e-05 0.00012038692)
(1.2075645e-05 6.9323639e-06 1.3546999e-05)
(1.2237895e-05 2.3031255e-05 -7.7467166e-06)
(-4.8216351e-06 -1.41425e-05 3.4791e-06)
(1.2981348e-05 1.8689919e-05 1.276605e-05)
(2.099166e-05 3.4124411e-05 -4.0725747e-05)
(0.00039893255 -7.0972051e-05 0.00011321657)
(1.3646505e-05 -2.9882931e-06 3.4302465e-07)
(1.6609826e-05 -2.2033731e-06 -6.6400004e-06)
(3.0709152e-05 1.6603931e-06 -8.7799938e-07)
(0.0002990694 2.8164284e-05 3.6293817e-05)
(0.00042515683 -5.123981e-05 5.2334132e-05)
(1.4240245e-05 5.6313316e-07 9.4196642e-06)
(0.00039887005 -6.4985843e-05 0.000123923)
(1.2827638e-05 1.1065884e-05 1.7024235e-05)
(2.0758194e-05 2.8144196e-05 -1.9373863e-05)
(4.4596689e-06 8.3924538e-06 8.4885985e-06)
(0.0004082538 7.5786257e-05 0.00016915839)
(-4.2055765e-06 9.3548695e-06 4.3579897e-07)
(0.00041375263 -7.1187263e-05 0.00016001711)
(2.8691477e-05 1.6668633e-05 -3.114733e-05)
(0.0004910476 -8.4697457e-05 0.00019971504)
(-1.155918e-05 -7.8589518e-06 -7.0483002e-06)
(3.4036806e-05 8.1471553e-06 -1.9387786e-05)
(0.00031924864 -1.1964639e-05 2.2365372e-05)
(-1.6786317e-05 -3.3612007e-05 -4.9583882e-06)
(0.0002825178 1.8127827e-05 2.1837659e-05)
(0.00026070305 -1.4854978e-05 4.2546418e-05)
(5.026638e-05 -9.0857564e-06 8.4045438e-06)
(-1.3023696e-05 -4.0171296e-06 -1.0890221e-05)
(0.00029557708 1.4720954e-05 4.6610269e-05)
(0.00033714556 4.5326029e-05 2.1742651e-05)
(0.00039031416 -2.5002098e-05 1.6041144e-05)
(-1.078329e-05 -1.9177378e-05 -4.8584579e-06)
(-1.9020211e-05 -4.3779945e-05 -1.9396791e-06)
(0.00029331777 -3.3439866e-05 1.2594442e-05)
(-2.2384717e-05 -3.4462849e-05 -3.4921642e-06)
(0.00032011134 3.3216927e-05 3.4445081e-05)
(0.0003250568 3.173202e-05 4.2856722e-05)
(-6.746874e-06 -4.6934223e-05 2.7063316e-05)
(-1.7325819e-05 -1.9484678e-05 -1.3308386e-05)
(0.00024062846 -2.8026102e-05 2.7666768e-05)
(0.00036270098 4.1087043e-05 5.3293765e-05)
(-2.5250461e-05 -2.8351849e-05 -1.7396236e-05)
(-2.645236e-05 -6.0706415e-05 1.0333599e-05)
(-2.699879e-05 -4.845259e-05 -1.144472e-05)
(0.00027383306 -1.2616873e-05 1.5179468e-05)
(0.00033559131 -4.2130697e-05 6.3536303e-05)
(-2.9568589e-05 -2.4545216e-05 -2.5024718e-05)
(-3.2715392e-05 -3.8573258e-05 -2.2357628e-05)
(-2.8549265e-05 -6.2723981e-05 -4.1328856e-06)
(0.00033256693 1.7273409e-05 1.7958651e-05)
(-2.9995515e-05 -4.2512347e-05 -1.5981167e-05)
(-4.3924034e-05 -4.8754934e-05 -2.7807784e-05)
(-3.317819e-05 -2.9700382e-05 -2.6972865e-05)
(-2.3893156e-05 -5.7461326e-05 -6.1811128e-06)
(-4.2801353e-05 -4.3447842e-05 -3.1963848e-05)
(0.00030272802 -4.9000732e-06 7.5103524e-06)
(-4.592806e-05 -5.9120299e-05 -2.3472839e-05)
(0.00037855015 -9.6624385e-06 1.9345803e-05)
(-1.9346117e-05 -6.3739825e-06 -1.4445687e-05)
(-6.4186144e-05 -6.7010826e-05 -3.8807925e-05)
(-5.356726e-05 -6.7094375e-05 -2.7470351e-05)
(3.1518356e-05 3.1677736e-05 -2.7286716e-05)
(3.2787367e-05 2.7043955e-05 -3.4733804e-05)
(-4.5896475e-05 -7.2636195e-05 -1.8899687e-05)
(0.00038610075 -3.2588406e-05 1.3232266e-05)
(1.7378626e-05 -1.5834168e-05 2.60433e-05)
(0.00035994845 1.4680944e-05 2.0866357e-05)
(0.00030963958 3.6133915e-05 2.1650549e-05)
(8.7593095e-05 9.4941599e-06 3.7042475e-05)
(-6.2550763e-05 -8.6836237e-05 -2.3658776e-05)
(0.00011963954 -2.7505985e-05 3.1195111e-05)
(0.00036481828 1.3624628e-05 1.6513352e-05)
(0.00027506718 -1.3322221e-05 1.4474973e-05)
(0.00032870641 2.9188466e-05 3.9158789e-05)
(2.2611386e-05 1.1146311e-06 4.5134115e-07)
(3.3047737e-05 -6.8835782e-07 2.2084534e-06)
(0.00035007683 2.209977e-06 1.2557581e-05)
(0.00034232076 -2.3477079e-05 1.9477355e-05)
(3.5246952e-05 3.8196119e-05 -2.5676482e-05)
(3.377256e-05 3.7452515e-05 -2.0223548e-05)
(2.5942085e-05 1.4920326e-05 7.0606686e-06)
(-4.5031201e-05 -8.2820096e-05 2.2305348e-06)
(0.00029866973 1.0214149e-05 1.5895882e-05)
(-4.5969015e-05 -4.5736875e-05 -3.4041865e-05)
(-7.1168321e-05 -7.4390894e-05 -4.642462e-05)
(0.00029477466 -9.4339749e-06 1.2148087e-05)
(0.00041642108 7.3686376e-05 0.00014063355)
(0.00030409118 9.2440405e-06 1.3052643e-05)
(0.00033612159 3.7732083e-06 1.4313219e-05)
(0.00032754536 -7.7567973e-06 2.5882527e-05)
(0.00029570271 5.2494876e-06 1.8012694e-05)
(0.00033701319 6.9515073e-07 1.5647825e-05)
(-8.4334665e-05 -8.6738198e-05 -4.3414779e-05)
(0.00037121819 -8.1325355e-07 1.4096684e-05)
(-6.7833202e-05 -8.7653955e-05 -2.9177727e-05)
(0.00036953076 -1.006618e-05 1.4860934e-05)
(2.3828189e-07 -3.8113592e-05 2.7325469e-05)
(-7.7671469e-05 -6.9737122e-05 -4.5753427e-05)
(3.5347016e-05 3.676451e-05 -3.0633668e-05)
(-9.3782783e-05 -8.1533007e-05 -4.6449839e-05)
(-1.7253177e-05 -5.6479283e-05 1.4509684e-05)
(0.00033761257 -1.475543e-05 2.1747202e-05)
(0.00028261322 9.0809919e-06 5.3365005e-06)
(0.0003751136 5.0292122e-06 2.4789914e-05)
(3.0975617e-05 1.3536796e-05 -2.7583207e-05)
(0.00034312292 -1.1627773e-05 2.1827149e-05)
(-3.5692373e-05 -8.3419156e-05 1.4806825e-06)
(4.5951298e-05 1.8062435e-05 -2.2655177e-05)
(4.9816764e-06 1.9584347e-05 2.5424859e-07)
(0.00034676181 -6.80486e-06 1.9920415e-05)
(-9.5293983e-05 -9.2309494e-05 -4.023508e-05)
(4.295146e-05 3.0471371e-05 -5.6634436e-06)
(0.00042500086 7.5802611e-05 0.00015145815)
(4.3833099e-05 1.4164925e-05 1.816719e-05)
(-4.5756058e-05 -8.1311783e-05 -9.1579324e-06)
(3.3387778e-05 -7.1257402e-06 3.2328978e-05)
(-6.1579299e-05 -9.8384452e-05 -2.2590906e-05)
(-7.0890304e-05 -6.4071581e-05 -4.6708625e-05)
(0.00028083723 -3.6351417e-05 3.7119039e-05)
(1.1280086e-05 1.2931655e-05 1.7367551e-05)
(0.00043798895 -7.0470372e-05 0.00021021535)
(0.00023596069 3.3638493e-05 6.275588e-05)
(0.00038952222 -3.2476795e-05 0.00023234214)
(0.00047920815 -7.0917013e-05 0.00023973768)
(0.00036696382 2.2852249e-05 0.0002237555)
(0.00043312028 7.5325455e-05 0.00013118313)
(0.00014741697 2.3731214e-05 5.5964603e-05)
(5.0729113e-05 2.9272432e-05 -2.583916e-05)
(5.3362475e-05 1.4770355e-05 -2.1712892e-05)
(0.00017315398 -2.7055224e-05 5.0095617e-05)
(2.1794977e-05 3.2238328e-06 1.0248372e-05)
(0.00035067884 3.6094005e-05 4.86953e-05)
(2.3776308e-05 4.0048103e-06 1.750416e-05)
(-7.9083827e-05 -8.727611e-05 -2.0578089e-05)
(-8.6569547e-06 6.259933e-06 8.2464957e-06)
(0.00052289247 -6.018409e-05 6.3928883e-05)
(5.2468164e-05 2.1470129e-05 -2.012837e-05)
(2.0995604e-05 3.0583437e-07 5.6730038e-06)
(4.7651671e-05 2.2350226e-05 -1.0206667e-05)
(-4.7962277e-05 -9.1030734e-05 -9.1679847e-06)
(6.2321424e-05 2.8886193e-05 2.078533e-06)
(0.0002917305 -3.9387708e-05 3.5509457e-05)
(7.8520741e-05 2.0725079e-05 -5.498803e-06)
(7.1138934e-05 2.1399338e-05 1.9757381e-05)
(-6.409232e-05 -0.00010188332 -1.1459888e-05)
(-6.8763948e-05 -9.4465074e-05 -2.2468121e-05)
(0.00024878287 -6.3150375e-06 2.2359758e-05)
(3.9508434e-05 2.7759392e-06 -2.2474462e-05)
(6.5105081e-05 1.6238396e-05 -1.0391998e-05)
(0.00024693918 3.1343853e-05 5.7546728e-05)
(4.3424823e-05 -1.3962245e-05 4.5400516e-05)
(0.00029673742 2.4284323e-05 -1.2502275e-05)
(3.6774549e-05 -2.9743434e-05 5.2013724e-05)
(1.8658853e-05 -5.2003143e-05 3.1431075e-05)
(-9.9999269e-05 -8.863591e-05 -4.2250704e-05)
(0.00026158579 -1.9994953e-05 1.6806964e-05)
(8.7648922e-06 -5.6481489e-05 3.9861577e-05)
(8.61067e-05 -2.2129711e-05 2.137615e-05)
(-1.0521728e-05 -7.782941e-05 1.8067586e-05)
(0.00045550607 -4.6650775e-05 8.7542499e-05)
(0.00025296715 3.1819763e-05 1.1956547e-05)
(7.454516e-05 1.7802984e-05 2.3790322e-05)
(8.6214986e-05 2.0168634e-05 6.3622411e-06)
(-1.9686354e-05 -8.2888547e-05 2.3149975e-05)
(-3.7803195e-05 -9.1406796e-05 8.7558723e-06)
(0.00042271213 5.674474e-05 0.00021471521)
(8.123359e-05 5.3558544e-06 4.3512893e-05)
(2.2967021e-05 -1.4363596e-06 7.9683684e-06)
(-0.0001074784 -8.7456043e-05 -5.9130656e-05)
(7.0646165e-05 2.3107754e-05 -2.1728253e-06)
(-3.9151309e-05 -9.3278413e-05 -1.6221163e-06)
(0.00046721977 -8.4582177e-05 0.00016331866)
(-9.2171986e-05 -7.0877038e-05 -5.0092297e-05)
(-2.362463e-05 -7.6322401e-06 -1.007544e-05)
(-5.4911252e-05 -9.7509744e-05 5.1481728e-06)
(0.00036663875 -1.8451043e-05 0.00022129553)
(-2.1710718e-05 -8.5168311e-05 2.900463e-05)
(0.00036962258 1.5082584e-05 0.00022266333)
(8.3165455e-05 1.4915762e-05 1.7505808e-05)
(-9.6434505e-05 -9.4121323e-05 -4.2931015e-05)
(-2.9201696e-05 -8.9432779e-05 9.9096236e-06)
(6.5812752e-05 -1.4327754e-05 1.363784e-05)
(-5.4727959e-05 -8.2806486e-05 -7.9177507e-06)
(0.00010019167 1.6840086e-05 1.7283346e-05)
(-4.2415315e-05 -8.5823394e-05 1.6786524e-05)
(9.8664083e-05 9.137147e-06 9.8752265e-06)
(0.00042072712 6.1467459e-05 0.00020977888)
(7.2607395e-05 1.2352079e-05 -1.4512697e-05)
(-3.4548701e-05 -2.3944769e-05 -3.6615761e-05)
(-6.6356943e-05 -6.5267221e-05 -5.4227462e-05)
(-0.00011026764 -8.2919171e-05 -5.2816317e-05)
(-6.4699306e-05 -7.944626e-05 -2.6738346e-05)
(-9.3459846e-05 -8.1416493e-05 -2.476762e-05)
(-4.296844e-05 -6.8750885e-05 1.1488885e-06)
(2.5169832e-06 2.1637649e-05 1.4037503e-05)
(-0.00012643567 -8.421579e-05 -5.577432e-05)
(0.00029318282 -3.684149e-05 3.1068175e-05)
(0.0003458674 -3.6048042e-05 2.7318718e-05)
(0.00042113982 4.6172919e-05 2.5547675e-05)
(-5.5233008e-05 -4.4230519e-05 -1.1403427e-05)
(0.00027289853 -2.2860543e-05 1.5089267e-05)
(0.00033047472 2.9554038e-05 4.2679805e-06)
(8.2169978e-05 1.9142569e-06 3.0386909e-05)
(-5.3680083e-05 -4.9203229e-05 -4.1542586e-05)
(0.00027683917 -6.0044167e-05 5.0732458e-05)
(2.3755229e-05 2.1561834e-06 1.6657108e-05)
(0.00030115003 4.0978147e-05 4.6984669e-05)
(-0.00010726409 -8.0247879e-05 -3.2050874e-05)
(0.00050774689 -8.436919e-05 0.00021938161)
(-7.3229483e-05 -4.0207336e-05 -1.9705038e-05)
(7.9011103e-05 9.7268506e-06 3.4117602e-05)
(0.00022117734 3.1784798e-05 5.753463e-05)
(-0.00011152714 -7.9033092e-05 -6.7371167e-05)
(5.2042375e-05 -2.8495205e-05 5.4661792e-05)
(-1.5470408e-05 -6.193111e-05 2.108e-05)
(2.3999708e-05 -2.0451656e-06 2.0128437e-05)
(0.00014218363 1.968683e-05 4.6249365e-05)
(0.00016065533 2.8080013e-05 5.5789606e-05)
(-0.00011541337 -7.7520585e-05 -4.7129695e-05)
(1.3040266e-05 1.3428896e-05 2.4256473e-05)
(0.00036064697 2.3229457e-05 2.6871268e-05)
(2.2802662e-05 -6.192205e-05 3.8480655e-05)
(0.00045580319 -7.8379053e-05 0.00014850142)
(-2.2816833e-06 -4.7387528e-05 1.1519999e-05)
(-9.6204148e-05 -7.7415246e-05 -6.4920939e-05)
(9.2778088e-05 1.2596e-06 4.4967747e-05)
(-9.6282387e-05 -3.6168969e-05 -3.6649104e-05)
(0.00041521673 -7.3660187e-05 0.00015594323)
(0.00045630615 -3.0832485e-05 4.1622352e-05)
(9.2694328e-06 -7.1114993e-05 4.0749233e-05)
(-7.0476559e-05 -6.9270606e-05 -5.6449473e-05)
(-7.4043864e-06 -2.9599685e-05 1.6142689e-05)
(-8.8455337e-05 -4.6125489e-05 -3.6164765e-05)
(-9.1100333e-05 -4.2148052e-05 -4.6233435e-05)
(-0.00011590652 -3.2116713e-05 -5.4409876e-05)
(0.0004311194 3.5045064e-05 0.00025194786)
(-5.9022611e-05 -1.1650856e-05 -2.6637353e-05)
(0.00043103831 -4.1396309e-05 0.00024707624)
(-0.0001262887 -7.276579e-05 -5.9648189e-05)
(0.00031903041 -1.9165121e-05 1.572341e-05)
(-9.7365066e-05 -1.0367368e-05 -4.8051424e-05)
(-3.8542959e-05 -1.55736e-05 -5.7340878e-06)
(0.00044039055 4.1961527e-05 0.0002510682)
(8.9759203e-05 3.8107395e-06 2.1135899e-05)
(0.0003351003 -5.4729695e-06 2.2390367e-05)
(9.9277983e-05 -1.9652843e-05 2.6216935e-05)
(-8.913314e-05 -3.2867201e-06 -4.5161174e-05)
(-6.8663263e-05 -1.8169706e-06 -1.7783177e-05)
(-0.00012733437 -4.7909316e-05 -6.6834047e-05)
(0.00030272133 -4.8284106e-05 3.6653707e-05)
(8.3166398e-05 6.060281e-06 2.7389161e-05)
(-0.00013893428 -3.580965e-05 -5.6843498e-05)
(4.1246563e-05 -1.0864521e-05 1.3690513e-05)
(-0.00013415593 -7.9057807e-05 -6.7820578e-05)
(0.00010399721 -1.3362496e-05 6.8225936e-05)
(0.00032357333 2.8881419e-05 2.6588622e-05)
(-8.7476844e-06 1.1423268e-05 -8.5072573e-06)
(9.9567813e-05 -2.2588171e-05 2.3869301e-05)
(2.3940564e-05 -6.5882368e-05 4.4577439e-05)
(4.1300503e-05 -3.8398226e-05 5.4432453e-05)
(0.00034230114 1.5050078e-05 2.2870409e-05)
(0.00014014213 1.8989882e-05 4.7748029e-05)
(0.00046880679 -5.3231864e-05 0.00026584322)
(-0.00013062839 -4.2972157e-05 -7.1064957e-05)
(-0.00013692438 -7.479744e-05 -6.8175874e-05)
(6.2229688e-05 -1.7171157e-05 1.9736618e-05)
(0.00036015605 2.6010376e-05 2.5033886e-05)
(-2.485126e-05 -3.9364343e-06 -2.0564752e-05)
(0.00041506097 6.2028458e-05 0.00010506617)
(0.00028924119 3.1889269e-05 3.6380659e-05)
(0.00037234397 9.8651675e-06 1.8334332e-05)
(-9.3205861e-05 -6.1600439e-05 -5.5385785e-05)
(-7.8400019e-05 -6.3769726e-05 -5.4997797e-05)
(0.0003962226 1.4890473e-05 -1.2186523e-06)
(-0.00012284957 -4.1662626e-05 -6.1554953e-05)
(0.00031109039 -2.895794e-06 2.3646812e-05)
(0.00041663975 -3.7991695e-05 3.6491131e-05)
(0.00045992202 -3.0125206e-05 3.4788211e-05)
(-0.00011328541 -7.1204771e-05 -6.4363742e-05)
(-0.00011859396 -7.51411e-05 -6.6179888e-05)
(-5.2715911e-05 -5.4250009e-05 -4.5129055e-05)
(-3.1429417e-05 -2.8341235e-05 -3.4583831e-05)
(0.00035290954 -8.2289128e-06 2.6013069e-05)
(0.00049232755 -6.8326582e-05 0.0001024298)
(0.00049069358 -7.1745485e-05 0.00011288962)
(0.00044244672 5.8947641e-05 9.9115086e-05)
(3.7912808e-05 -1.213233e-05 1.7356414e-05)
(0.00047377824 5.2638784e-05 0.00010443153)
(0.00024642394 -3.022863e-06 9.6905319e-06)
(3.3520427e-05 -7.4877333e-06 2.206411e-05)
(0.00027208509 -4.9076688e-06 1.4502375e-05)
(6.9335099e-05 -2.0283618e-05 2.3668001e-05)
(3.276973e-05 -2.5096113e-06 2.023676e-05)
(7.4080271e-05 -2.2693579e-05 2.7263905e-05)
(2.8068987e-06 1.4280055e-05 2.0032811e-05)
(2.8719913e-05 -5.255965e-06 2.729961e-05)
(7.0951911e-05 -2.1682008e-05 2.7284424e-05)
(2.0524864e-06 2.1843103e-05 1.1770931e-05)
(-2.751257e-06 1.8299227e-05 2.9849203e-06)
(2.1848549e-05 -1.731634e-06 2.0760574e-05)
(0.00010794674 -2.8517255e-05 2.9811346e-05)
(-6.0038692e-05 -6.3788655e-05 -5.6919774e-05)
(-1.5516391e-05 1.351852e-05 3.3678454e-06)
(7.9662458e-05 -2.9774447e-05 2.8130926e-05)
(0.0001086884 -3.5725966e-05 3.3257687e-05)
(0.00012689151 -3.9009848e-05 3.2326834e-05)
(0.00011417117 -2.6774014e-05 2.8641876e-05)
(0.00036976425 4.1621137e-05 0.0002097536)
(0.00032444503 -4.4840703e-05 2.9312044e-05)
(-1.739562e-05 1.3554283e-05 -1.0129435e-05)
(0.00034033116 -2.9136404e-05 2.7604851e-05)
(0.00015985869 -3.4310482e-05 4.2645061e-05)
(0.00046819385 -6.2491492e-05 0.00025014158)
(-4.0495961e-05 -4.7788972e-05 -4.8113938e-05)
(0.00041413917 4.9442862e-05 6.5366564e-05)
(0.00015916723 -3.4735762e-05 4.7837864e-05)
(0.00033709862 -3.6000739e-05 2.495791e-05)
(0.00042819209 5.2690144e-05 2.2686168e-05)
(0.00030690162 4.5071713e-05 4.5259257e-05)
(-4.4441614e-05 -6.0026581e-05 -4.5189359e-05)
(0.00026941146 -5.6682377e-05 4.2800168e-05)
(-2.4515835e-05 -2.5142468e-06 -1.9106597e-05)
(0.00023072303 -5.3927582e-05 3.9059114e-05)
(-1.3785724e-06 4.2363829e-06 1.1263386e-05)
(0.00041244042 -3.6605844e-05 3.6045144e-05)
(0.00033729909 3.4369834e-05 3.5878552e-05)
(2.3918123e-05 -1.0069341e-05 2.068528e-05)
(0.0003640028 -8.1809601e-06 2.3542438e-05)
(0.00032709405 3.7408825e-05 4.0621464e-05)
(-3.6458904e-05 -9.991824e-06 -2.8448211e-05)
(-1.9605591e-05 5.4726641e-06 6.4388552e-06)
(-3.5032151e-05 -2.5406769e-05 -4.4570748e-05)
(-3.6425721e-05 -1.7335292e-05 -2.0160893e-05)
(0.00041924217 2.9865855e-05 1.8801579e-05)
(7.7839668e-05 -2.3168423e-05 2.6971677e-05)
(0.00037275313 3.3952921e-06 1.0729899e-05)
(0.00035918445 2.2465241e-05 1.8904326e-05)
(0.00034748535 7.2080113e-06 2.782017e-05)
(9.4743194e-06 -1.7636537e-06 1.9117259e-05)
(-3.5509627e-05 -3.6507697e-05 -4.0092806e-05)
(-1.4964263e-05 -2.5627651e-05 -3.1125172e-05)
(0.00017325729 -3.1688007e-05 3.4770836e-05)
(0.00046908365 -7.1454035e-05 0.00012531241)
(-3.6003431e-05 -3.9731588e-05 -3.7613131e-05)
(9.9238722e-05 2.3478843e-06 1.7009087e-05)
(-6.354377e-06 -5.7267157e-06 -1.1751543e-05)
(0.00016175536 -3.3338302e-05 4.1470983e-05)
(0.00024096686 -5.2231652e-06 2.0770815e-05)
(0.00041479005 -2.5334854e-05 2.8489552e-05)
(-1.4188908e-05 -4.0718234e-05 -4.3945471e-05)
(0.00022270462 -4.9554216e-05 3.5954415e-05)
(0.00020451295 2.3924376e-05 5.9111023e-05)
(-3.3601645e-05 -6.4387136e-05 -4.4293723e-05)
(0.000260535 4.1994009e-06 2.6204889e-05)
(0.00041616371 -2.3445186e-05 2.255821e-05)
(0.00035678989 -1.0130921e-05 2.2647193e-05)
(3.942414e-05 -1.6465394e-05 2.2764485e-05)
(-1.0934481e-05 -3.1372557e-05 -2.6097625e-05)
(-5.2244864e-07 -9.4963459e-06 -4.9775193e-06)
(0.00029576501 2.5999263e-05 3.4403177e-05)
(1.5486573e-05 -3.4956609e-05 -7.6207045e-06)
(4.0330094e-06 -1.0262039e-05 8.6610532e-06)
(0.00024302143 3.4578988e-05 6.6138341e-05)
(0.00043068207 -3.3706944e-05 3.6441694e-05)
(4.3142007e-05 -2.5264566e-05 8.9626315e-06)
(-1.1601228e-05 -5.1201921e-05 -3.4631411e-05)
(2.3309745e-05 8.5586576e-06 9.9019916e-06)
(3.3820125e-05 -3.7776432e-05 -6.1665561e-06)
(1.5735077e-05 -5.4847279e-05 -2.3192869e-05)
(5.4122445e-05 -2.7193708e-05 3.121904e-06)
(4.8459447e-05 -2.6191139e-05 1.9666065e-05)
(0.00010016258 8.6713235e-06 1.9411988e-05)
(0.0004585075 6.8800937e-05 0.00020154129)
(0.00046462146 -8.1481128e-05 0.00018222706)
(-2.2039999e-05 -6.9240447e-05 -4.5535713e-05)
(0.00013667048 1.676311e-05 4.7195349e-05)
(5.5580297e-05 -4.5010893e-05 -1.68677e-05)
(1.1009717e-05 -7.2269559e-05 -3.4781796e-05)
(2.5791464e-05 -5.8429031e-05 -2.5533441e-05)
(-4.210341e-07 -6.5117491e-05 -4.056273e-05)
(5.5230731e-05 -5.8808021e-05 -3.9786138e-05)
(0.00039933001 -4.5773031e-05 7.2970059e-05)
(3.2731668e-05 -7.402343e-05 -2.8452809e-05)
(0.00031236073 -5.2205599e-05 3.9873051e-05)
(0.00041322483 4.7905801e-05 6.2122358e-05)
(9.7578333e-05 -3.2118715e-05 3.0652849e-05)
(0.00051269282 8.3411058e-05 0.00020400193)
(-7.9690089e-05 -7.3341041e-05 -6.0824747e-05)
(-8.5006514e-05 1.0877804e-05 -4.3945281e-05)
(-8.1269864e-05 -7.5715041e-05 -6.0467494e-05)
(-9.8272679e-05 -1.575958e-05 -5.0452152e-05)
(-5.0338929e-06 1.9366884e-05 -2.6424552e-05)
(0.0001161376 -3.7680495e-05 3.546976e-05)
(0.00024176134 3.0547485e-05 6.3504519e-05)
(5.3439043e-05 -6.9931336e-05 -3.6327639e-05)
(0.00018345685 -5.7203051e-05 4.6507378e-05)
(-0.00012538755 -4.1263128e-05 -5.9911341e-05)
(0.00025024969 -4.7418788e-05 3.4633595e-05)
(9.8650289e-05 -4.8879308e-05 1.1966658e-05)
(0.00010145498 -4.5622343e-05 2.0008244e-05)
(8.8549623e-05 -7.6924475e-05 -8.2887933e-07)
(9.2343013e-05 -8.4000296e-05 -9.3655045e-06)
(0.00043919719 2.6647989e-05 0.00025751306)
(0.00041647256 -3.7226742e-05 0.00024529265)