/*--------------------------------*- C++ -*----------------------------------*\
  =========                 |
  \\      /  F ield         | OpenFOAM: The Open Source CFD Toolbox
   \\    /   O peration     | Website:  https://openfoam.org
    \\  /    A nd           | Version:  11
     \\/     M anipulation  |
\*---------------------------------------------------------------------------*/
FoamFile
{
    format      ascii;
    class       volVectorField;
    location    "10000";
    object      wallShearStress;
}
// * * * * * * * * * * * * * * * * * * * * * * * * * * * * * * * * * * * * * //

dimensions      [0 2 -2 0 0 0 0];

internalField   uniform (0 0 0);

boundaryField
{
    wall-fluid_domain
    {
        type            calculated;
        value           nonuniform List<vector> 
50990
(
(0.00027523985 -3.8887833e-05 2.309575e-05)
(0.000277837 -4.7147823e-05 2.6412557e-05)
(0.00015679678 -3.7958076e-05 2.9298807e-05)
(0.00024419389 -2.2649086e-06 3.1502813e-05)
(0.00028378674 -3.8512051e-05 2.4171664e-05)
(0.00032296472 2.8938841e-06 3.7262879e-05)
(0.00026648585 -4.1685177e-05 2.3580166e-05)
(0.0002543049 -2.685731e-05 2.2059203e-05)
(0.00029441353 -7.8079389e-06 3.9700381e-05)
(0.00035079178 -2.705949e-05 3.6888113e-05)
(0.0002476225 -2.9874563e-05 1.9845624e-05)
(0.00033587766 -2.9283295e-05 3.2329289e-05)
(0.00015493087 -4.1645457e-05 3.7380781e-05)
(0.00027991145 -4.4343177e-05 2.3448816e-05)
(0.00034198316 -2.2883976e-05 7.347311e-05)
(0.0003602129 -4.9482795e-06 5.4668472e-05)
(0.0003447755 -1.7534051e-05 3.7686542e-05)
(0.00028063117 -4.0046969e-05 2.1807356e-05)
(0.00031048332 9.3278384e-07 4.5732356e-05)
(0.00027974349 4.2735209e-06 4.5976274e-05)
(0.0002285664 3.3193721e-05 8.785171e-06)
(0.00032353213 6.3594862e-06 4.0344836e-05)
(0.00035139151 -1.348477e-05 4.5462893e-05)
(0.00034526099 -8.503417e-06 3.7279444e-05)
(0.0002641837 -4.7935668e-05 1.7809619e-05)
(0.00034294753 1.8279926e-05 4.9584339e-05)
(0.00022165374 5.0558074e-05 3.837391e-06)
(0.00031851823 7.5476214e-06 3.9151429e-05)
(0.00025508252 -6.7046524e-05 3.799408e-05)
(0.00023990458 5.4775482e-05 2.1834058e-05)
(0.00033282317 -1.3236805e-05 5.9827617e-05)
(0.00036685397 3.9029935e-05 7.7070856e-05)
(0.00034608115 -2.1622085e-07 4.1159663e-05)
(0.00037335147 2.2860164e-05 5.6601526e-05)
(-3.3071921e-05 3.4317558e-05 -1.3861383e-05)
(0.00037343768 3.2599044e-05 6.5534439e-05)
(0.00031845871 1.0119748e-05 3.993883e-05)
(0.00035516674 -1.2751943e-05 5.2727233e-05)
(0.00032672199 1.5710776e-05 5.149458e-05)
(0.0003831705 4.7775282e-05 9.1792379e-05)
(0.00030249106 -3.2531258e-06 5.6696834e-05)
(0.00035760261 -3.4472947e-05 8.5034726e-05)
(0.00022729052 -6.5193043e-05 5.6295545e-05)
(0.00015839898 -4.4249253e-05 4.3961833e-05)
(0.00024937932 5.2195251e-05 2.0669582e-05)
(0.00033016076 -1.7600974e-05 6.2407641e-05)
(0.00031686994 2.6893697e-05 6.6054256e-05)
(0.00033673348 -2.3903362e-05 7.3978217e-05)
(0.00027510928 -9.7801123e-06 4.8813369e-05)
(0.00028424995 -1.1429826e-05 5.8035503e-05)
(0.000220349 -5.5683964e-05 2.9680533e-05)
(0.00025421608 -6.1061049e-05 2.6689696e-05)
(3.5714972e-05 1.7357642e-05 2.0891436e-05)
(3.333115e-05 1.79957e-05 1.5458164e-05)
(0.00023841059 -4.9801908e-05 2.5187141e-05)
(-8.8411941e-06 3.0185566e-05 8.9540486e-06)
(0.00031687708 -2.427175e-05 7.3465635e-05)
(0.0002806735 -4.7222422e-05 2.2534893e-05)
(0.00022836185 -6.3270882e-05 4.310243e-05)
(0.00024779069 3.7809397e-05 1.3832715e-05)
(0.00022833418 -5.9457593e-05 3.9663513e-05)
(0.00022224884 -5.20706e-05 4.8903351e-05)
(0.00021074591 -5.878479e-05 4.2536022e-05)
(0.00022053754 -5.5193082e-05 2.5161956e-05)
(0.00030535975 -4.6222808e-05 2.5052035e-05)
(0.00012220595 -3.2289507e-05 4.1790853e-05)
(0.00031683026 -3.6385755e-05 2.9627053e-05)
(0.00016075481 -4.785536e-05 4.163139e-05)
(0.0003448501 -3.6088223e-05 0.00019760403)
(0.00025621612 -4.1045518e-05 2.0254886e-05)
(0.00021694276 -6.8842024e-05 4.5705884e-05)
(0.00016497001 -4.6094411e-05 4.9441025e-05)
(0.00011382652 -2.6802656e-05 4.3885697e-05)
(0.00028734829 -2.1123864e-05 3.1991823e-05)
(0.00014032331 -4.1770121e-05 4.0242541e-05)
(0.00022660224 -5.9539583e-05 3.5464854e-05)
(0.00014552874 -4.1850164e-05 5.1557836e-05)
(8.5266383e-05 -1.6778943e-05 3.6659989e-05)
(0.00011176226 -2.8118583e-05 4.565519e-05)
(0.00015940517 -4.7055408e-05 4.9738838e-05)
(0.00021298829 -5.9705764e-05 4.1041828e-05)
(8.8028438e-05 -1.4773103e-05 4.2709203e-05)
(0.00010841171 -2.376045e-05 4.5825064e-05)
(0.0002137331 -5.3998037e-05 2.5895021e-05)
(0.00013251051 -3.9151856e-05 4.5897664e-05)
(0.00017134564 -5.7162879e-05 4.7384447e-05)
(0.00018593145 -5.2780855e-05 3.0932627e-05)
(0.00022594068 -6.1792989e-05 2.6726927e-05)
(0.00011975066 -3.6195726e-05 4.5080012e-05)
(9.1904347e-05 -1.7531299e-05 4.6811081e-05)
(0.00016858472 -5.1523303e-05 4.2756327e-05)
(0.00013144793 -4.5201882e-05 4.0407913e-05)
(9.9980199e-05 -2.8524488e-05 4.505439e-05)
(9.0475511e-05 -1.7441476e-05 4.2070525e-05)
(0.00034813638 -3.8704883e-05 0.00019537708)
(0.00032340457 -3.1754286e-05 0.00018124571)
(0.00023841277 -2.8205402e-05 0.00014029124)
(0.0002786633 -4.8978703e-05 2.3397813e-05)
(7.1185577e-05 -2.2208241e-06 4.0872911e-05)
(0.00030955513 -3.7776396e-05 2.4898905e-05)
(0.00024411306 -4.3741311e-05 1.9099794e-05)
(0.00027032949 -2.1232026e-05 2.670163e-05)
(7.2939558e-05 -2.6826475e-06 3.7659288e-05)
(0.00024024264 -4.6916125e-05 1.8687809e-05)
(0.00023721538 4.7431307e-05 1.7111715e-05)
(7.8497959e-05 -4.919206e-06 4.2635501e-05)
(7.0729001e-05 -1.7489986e-06 3.9264538e-05)
(7.987952e-05 -5.2142229e-06 4.7502993e-05)
(7.0125493e-05 -9.8434997e-06 3.4776988e-05)
(0.00028284687 -1.309624e-05 3.2033119e-05)
(0.00025158606 -4.0570169e-05 1.8566972e-05)
(0.00028391011 -3.7119651e-05 2.1787989e-05)
(0.00030066548 -3.5465872e-05 2.8076811e-05)
(0.00025788371 -5.5057173e-05 2.1358171e-05)
(0.00024838141 -5.0432319e-05 1.8244893e-05)
(0.00029375408 -2.8141593e-05 2.8324712e-05)
(0.00025436937 -4.2135108e-05 2.2204717e-05)
(0.00024315483 -4.7554648e-05 1.8264805e-05)
(0.00026370596 -2.9544461e-05 2.4922672e-05)
(0.00025264128 -3.041403e-05 1.7624143e-05)
(0.00024825526 -4.3200506e-05 1.5659085e-05)
(0.0002526565 -5.6657634e-05 1.3686689e-05)
(0.0001786239 -4.1882251e-05 1.3612797e-05)
(0.00022383854 -5.8538575e-05 1.569497e-05)
(0.00026978329 -6.9730543e-05 1.847093e-05)
(0.000255969 -5.5192562e-05 1.5829627e-05)
(0.00024690861 -3.5876639e-05 1.551727e-05)
(0.00028396418 -2.93589e-05 2.5251745e-05)
(0.00026839395 -6.4857307e-05 1.4474049e-05)
(0.00025447643 -5.3087508e-05 1.6053832e-05)
(0.00029538439 -2.0013927e-05 3.0335633e-05)
(0.00024661796 -2.9648431e-05 1.8460286e-05)
(0.00029080356 -1.8824209e-05 2.8343185e-05)
(0.00027688241 -2.4547439e-05 2.4630499e-05)
(0.00033115783 1.256666e-05 4.4056603e-05)
(0.00025743978 -1.8129282e-05 2.0666186e-05)
(0.0002483123 -4.8297233e-05 1.338166e-05)
(0.0002958121 -1.3714086e-05 3.2091137e-05)
(0.00026864083 -4.3224261e-05 1.624525e-05)
(0.00024738863 -4.1331097e-05 1.1751236e-05)
(0.00019864748 -5.456701e-05 1.1045317e-05)
(0.00026892876 -2.5336425e-05 2.1232341e-05)
(0.00026839068 -3.2357731e-05 1.6410574e-05)
(0.0002860388 -7.6808875e-06 3.1046283e-05)
(0.00026247258 -1.6210099e-05 2.8719248e-05)
(0.00023255467 -6.629302e-05 1.4833764e-05)
(0.00032782267 2.8242646e-05 5.9381547e-05)
(0.00025580976 3.3285721e-05 3.1337908e-05)
(0.00018343562 -3.5693031e-05 8.5628597e-06)
(0.00029015844 2.4793449e-05 4.1003698e-05)
(0.00025847604 -3.7834222e-05 1.8868598e-05)
(0.00026646829 -1.7197436e-05 2.3895633e-05)
(0.00021622485 3.240059e-05 1.8624114e-05)
(0.00024042586 -3.8620066e-05 1.4399167e-05)
(0.00028511313 -1.0074631e-05 3.0945653e-05)
(0.00024277909 8.9094864e-06 4.2179794e-05)
(0.00021669327 -2.0654982e-05 1.3488463e-05)
(0.00029300968 -1.6368795e-05 2.8853792e-05)
(0.00023247799 -1.7985681e-05 2.0427828e-05)
(0.00030322775 -4.2978772e-06 3.7046625e-05)
(0.00019936667 -4.0879521e-05 1.174526e-05)
(0.00022987968 -3.0934455e-05 1.7499812e-05)
(0.00022305785 -3.9249353e-05 1.1150911e-05)
(0.00030274169 -7.4702181e-06 3.7582963e-05)
(0.000234163 -1.7514237e-05 2.3643019e-05)
(0.0002693392 -3.5279041e-05 2.5623089e-05)
(0.00027181461 -2.8070774e-05 2.6335585e-05)
(0.00031568783 2.7244208e-06 4.297898e-05)
(0.00029630024 -1.3755962e-05 3.174815e-05)
(0.00028711914 -1.0221463e-05 3.0864984e-05)
(0.000293324 1.3642849e-06 3.9830304e-05)
(0.00037255534 3.2645809e-05 8.6357468e-05)
(0.00026111806 -2.8364603e-05 2.3615839e-05)
(0.00034946686 -9.1346248e-06 4.5910786e-05)
(0.00026478186 -1.7656247e-06 3.6787204e-05)
(0.00026467338 -2.0634922e-05 2.9851405e-05)
(0.00035346334 -6.054301e-05 8.0276572e-05)
(0.00020982504 -2.2091514e-05 2.1632239e-05)
(0.00025715257 -1.6340605e-05 2.9869893e-05)
(0.000250171 -4.0371952e-06 2.9829103e-05)
(0.00026777944 -1.2740246e-05 3.3086343e-05)
(0.00020434816 -1.7761203e-05 2.0461824e-05)
(0.00026815681 5.7285011e-06 4.0278519e-05)
(0.00023550733 -2.7664958e-05 1.5603851e-05)
(0.00024058254 -1.676811e-05 3.0313497e-05)
(0.00022487093 -1.5287707e-05 2.6971319e-05)
(0.00031324406 1.1234531e-05 5.1624787e-05)
(0.00025349086 -5.5301445e-07 3.6553483e-05)
(0.00023503531 -1.3029764e-05 3.0813409e-05)
(0.00032751092 -5.3676307e-05 7.1379464e-05)
(0.0002411428 -1.4637122e-06 3.3519612e-05)
(0.00027327408 4.9090266e-06 4.8294812e-05)
(0.00023819157 -2.115643e-05 2.8458614e-05)
(0.00024633162 -5.3989169e-06 3.6414065e-05)
(0.00024312718 4.8581369e-05 2.2071018e-05)
(0.00025755232 1.1743283e-05 4.8027692e-05)
(0.00022640552 -1.2511216e-05 3.5580998e-05)
(0.00023884006 -1.3320593e-05 3.0107117e-05)
(0.00032176484 1.5906638e-05 6.3588132e-05)
(0.0002592117 -3.8275829e-06 3.5890487e-05)
(0.00024276471 3.8464143e-07 4.0493023e-05)
(0.00022113939 -7.6751072e-06 3.5047738e-05)
(0.00025867237 -3.7527503e-06 4.3666015e-05)
(0.00029392326 6.4423363e-06 4.8951014e-05)
(0.00024391685 -1.5483457e-06 4.029815e-05)
(0.00024283715 -1.5112696e-05 3.5696189e-05)
(0.00031074262 -7.9755624e-06 3.8315158e-05)
(0.00021493407 -2.6261641e-05 3.1567556e-05)
(0.00030757845 6.6859864e-06 5.6249912e-05)
(0.00033179444 6.7138257e-06 4.9807307e-05)
(0.00022106581 -4.9047342e-06 3.9532295e-05)
(0.00024569633 -6.2279847e-06 4.2028499e-05)
(0.00033525874 1.7198363e-05 7.0671562e-05)
(0.00026150993 1.0793474e-05 5.3235419e-05)
(0.00024759279 -1.1395103e-05 4.6700109e-05)
(0.00034188407 -6.3064677e-07 4.1745662e-05)
(0.00021701374 -9.6493069e-06 4.0705136e-05)
(0.0001878504 -2.5110491e-05 1.6054876e-05)
(0.0003281445 1.5979431e-05 5.5236255e-05)
(0.00034480584 1.1493471e-05 7.223638e-05)
(0.0001910951 -1.9064872e-05 1.9466144e-05)
(0.0002124343 8.0805719e-07 4.5358294e-05)
(0.00022078458 -4.9112727e-06 4.5884926e-05)
(0.00023301001 -4.3055391e-06 5.4209046e-05)
(0.00021356501 3.9830365e-06 4.8260276e-05)
(0.00018042767 -2.0257903e-05 2.1023877e-05)
(0.00020202608 -9.7637869e-06 4.4797397e-05)
(0.00020351424 -1.1653636e-05 4.1041481e-05)
(0.00034583622 1.7917289e-05 5.9559316e-05)
(0.00031443381 2.1518214e-05 6.6491898e-05)
(0.00032178385 1.1994492e-05 5.1860374e-05)
(0.00023368221 -5.8653588e-06 5.8566539e-05)
(0.00023710866 -2.3240025e-07 5.7891423e-05)
(0.00032681612 5.8058171e-06 5.0641135e-05)
(0.00021981582 -8.0136722e-06 5.9088149e-05)
(0.00023108311 -5.1364626e-06 5.9729669e-05)
(0.00021751643 -3.3903333e-05 1.2186688e-05)
(0.0003191776 -5.648553e-05 7.9707508e-05)
(0.00023363034 1.6743079e-05 4.5387188e-05)
(0.00025248801 1.9185832e-06 7.0931718e-05)
(0.00024271285 -4.4838798e-05 2.0226085e-05)
(0.0002224404 -2.2547685e-06 6.2750406e-05)
(0.00022429999 -1.7524779e-06 6.8843385e-05)
(0.00030444828 1.2723584e-05 6.8116299e-05)
(0.00019143514 -4.127587e-05 6.3261696e-06)
(0.00025928498 6.0409384e-07 7.9081602e-05)
(0.00032661425 2.5061594e-05 7.4870561e-05)
(0.00027433161 4.7488312e-06 5.0837313e-05)
(0.00023357318 -3.8859635e-05 1.4742209e-05)
(0.00029922985 1.1546083e-05 5.8941024e-05)
(0.00028280982 1.3806351e-08 5.1720807e-05)
(0.00031834485 2.2874197e-05 7.3396561e-05)
(0.00025673083 3.7240286e-06 4.7122469e-05)
(0.0002590238 -1.3651417e-06 5.10674e-05)
(0.00032492033 2.5506906e-05 6.2156432e-05)
(0.0003323848 3.3609965e-05 6.9971442e-05)
(0.00032828278 1.7022811e-05 6.0007576e-05)
(0.00033460492 2.0194056e-05 7.558125e-05)
(0.0003013797 2.1852853e-05 7.3481127e-05)
(0.00032534844 2.6644267e-05 7.1438574e-05)
(0.00029564241 2.1946011e-05 7.2346738e-05)
(0.00025886751 6.4022904e-06 5.630776e-05)
(0.00030534874 2.900705e-05 7.1205736e-05)
(0.00033612195 3.2561716e-05 7.8071108e-05)
(0.00029718992 1.5790085e-05 6.511944e-05)
(0.00026510114 4.4493933e-06 3.8864586e-05)
(0.00036134436 3.244138e-05 9.2804415e-05)
(0.00036372852 3.5961664e-05 8.5605186e-05)
(0.00021033185 -2.0896473e-05 3.1846157e-05)
(0.00030979208 -6.5799201e-05 0.00013124032)
(0.00022594297 -2.3563187e-05 3.9811962e-05)
(0.00035737069 4.0243764e-05 9.7370337e-05)
(0.00026853494 1.007909e-05 5.5170113e-05)
(0.00026451501 2.6941065e-05 3.3661271e-05)
(0.00025758458 3.9883134e-05 3.1672106e-05)
(0.00028138268 8.6851257e-06 5.4574828e-05)
(0.00032233794 3.1744511e-05 8.6879399e-05)
(0.00029959783 6.3624229e-05 0.00013563802)
(0.00026880064 5.1096061e-06 5.703902e-05)
(0.00036410315 3.9551956e-05 0.00010699962)
(0.00032183367 4.1551873e-05 9.9842046e-05)
(0.00028466437 2.0186852e-05 4.2837946e-05)
(0.00022079128 -1.9485353e-05 3.9043138e-05)
(0.00025533441 4.7841165e-05 2.8854108e-05)
(0.00031941343 3.6678988e-05 9.2057871e-05)
(0.00028321139 3.4942106e-05 9.058268e-05)
(0.00032162334 1.987588e-05 7.8926521e-05)
(0.0001808512 -1.3556863e-05 4.120519e-05)
(0.00020273784 -1.5516277e-05 5.2152824e-05)
(0.0003297433 3.3657903e-05 0.0001019287)
(0.00029423114 2.8766426e-05 8.3302229e-05)
(0.00032042233 2.4675444e-05 6.1270649e-05)
(0.00026086419 7.980137e-07 6.7384613e-05)
(0.00018936157 -3.9288971e-05 6.601138e-06)
(0.00033468712 4.2296431e-06 5.3631212e-05)
(0.00032520961 2.7373835e-05 7.1860493e-05)
(0.00034787242 3.9172621e-05 8.9053342e-05)
(0.00031168102 2.6569257e-05 7.8207639e-05)
(0.00025587966 3.0282936e-06 6.6523958e-05)
(0.00029054361 2.0255823e-05 6.7636943e-05)
(0.00035168532 3.9544305e-05 9.5249156e-05)
(0.00031695352 3.1577454e-05 7.9941567e-05)
(0.0001924011 -5.1455284e-05 9.217939e-06)
(0.00022309769 7.8556018e-06 6.446171e-05)
(0.00036302962 3.9778352e-05 0.0001043333)
(0.00023494124 -7.6831551e-06 7.1052181e-05)
(0.00033294438 3.939398e-05 0.00010871469)
(0.00029599935 1.7861212e-05 6.7588223e-05)
(0.00028632341 1.6016724e-05 6.2493986e-05)
(0.00027944689 2.7083723e-05 7.2242626e-05)
(0.00027172545 9.4608001e-06 6.1625277e-05)
(0.00033650464 2.1173284e-05 6.0317424e-05)
(0.0002278698 -2.1244332e-06 7.3417896e-05)
(0.00029497102 2.4305373e-05 7.5067408e-05)
(0.00026125945 4.3879058e-06 5.9376628e-05)
(0.00026268864 -4.4096289e-06 3.5645932e-05)
(0.00028749354 3.5684308e-05 9.7596409e-05)
(0.00035435382 3.1802865e-05 9.0244892e-05)
(0.0002433511 1.66934e-05 5.9588083e-05)
(0.00024638465 3.854267e-06 4.3728005e-05)
(0.00024538233 1.7833579e-05 6.4208504e-05)
(0.00032474602 3.844296e-05 0.00010521633)
(0.00029083079 3.301135e-05 8.7817312e-05)
(0.00032908862 4.2072059e-05 9.6368511e-05)
(0.00033552661 4.4719788e-05 0.0001164919)
(0.00022404801 -2.8429311e-05 2.7233943e-05)
(0.00025175177 -1.2303607e-06 7.98967e-05)
(0.00022812885 -4.2881477e-05 2.8568288e-05)
(0.00029998626 3.9024992e-05 0.00010930397)
(0.00033189546 3.4688821e-05 0.00010733594)
(0.00029632111 3.2239821e-05 0.00010327595)
(0.00019942465 -1.316282e-05 5.204615e-05)
(0.00027239059 9.575706e-06 6.1239812e-05)
(0.00032256273 1.376148e-05 7.9772693e-05)
(0.00023153993 -1.8010496e-05 6.8817455e-05)
(0.00023973932 4.5935771e-05 1.3848984e-06)
(0.0002621134 2.1582029e-05 7.7617799e-05)
(0.00027847353 4.359629e-05 -2.2396229e-07)
(0.00023800335 -8.9863364e-06 7.8130337e-05)
(0.00032830417 3.3041091e-05 7.485076e-05)
(0.0002238783 3.4572255e-07 7.3528693e-05)
(0.00034812416 3.9730753e-05 9.1243216e-05)
(0.00024468456 1.0603373e-05 6.2360159e-05)
(0.00026125731 5.5991254e-06 6.8801785e-05)
(0.00024589088 1.7720018e-06 8.0834538e-05)
(0.00023193978 7.2311111e-06 7.0997101e-05)
(0.00022286419 -3.9745316e-05 2.5705605e-05)
(0.00033435115 3.7333698e-05 8.4030837e-05)
(0.00026980834 7.899355e-06 9.2165704e-05)
(0.00032672278 -7.2786828e-05 0.00011563933)
(0.00023077154 1.3145458e-05 7.4771431e-05)
(0.00029464274 6.9160562e-05 0.00011814141)
(0.00026091344 6.7644673e-06 3.9916853e-05)
(0.00029778819 -4.772425e-06 5.8094298e-05)
(0.00018700308 -1.527005e-05 4.6685727e-05)
(0.00023206527 -4.9593002e-06 7.6675899e-05)
(0.00022721874 -1.6668964e-05 6.80031e-05)
(0.00022191642 -9.9175954e-06 6.9500516e-05)
(0.00032236243 2.3518639e-05 8.6258969e-05)
(0.00032640017 1.9591882e-05 9.515242e-05)
(0.00023526599 -3.3910552e-06 8.4554389e-05)
(0.000367801 4.770141e-05 9.8042095e-05)
(0.00022240067 7.2924819e-06 7.9843599e-05)
(0.00028374933 -1.2478345e-05 5.536548e-05)
(0.00027012912 1.2436535e-05 7.96581e-05)
(0.00036299931 -2.8110648e-05 9.7309636e-05)
(0.00026035051 1.5657674e-05 7.3284245e-05)
(0.00022739426 7.5577932e-06 8.6132336e-05)
(0.00030038769 -2.1934403e-05 7.1852632e-05)
(0.00026808877 1.3075067e-05 9.708056e-05)
(0.0002606629 9.2967542e-07 9.3077332e-05)
(0.00025616843 2.0000596e-05 8.0649556e-05)
(0.00024116736 -4.5809897e-06 9.1323893e-05)
(0.00027203262 1.3923968e-05 9.4044807e-05)
(0.00020282069 -1.1079581e-05 6.9148109e-05)
(0.00020625924 -1.4480944e-05 5.9863042e-05)
(0.0001872262 -1.9969271e-05 5.0813261e-05)
(0.00027456707 -1.1392419e-06 0.00010368916)
(0.0002813266 2.0341718e-05 9.120353e-05)
(0.00028501471 1.2835294e-05 8.6262388e-05)
(4.79105e-05 1.5456237e-05 3.5204838e-05)
(0.00026238301 1.8531075e-05 7.9047829e-05)
(0.00026602461 1.2111407e-05 9.896242e-05)
(0.00028145026 1.8400079e-05 9.9375233e-05)
(0.00027093372 1.8822168e-05 9.9900802e-05)
(0.00027830609 1.675221e-05 9.0026883e-05)
(0.00028057495 2.2452209e-05 0.00010283342)
(0.00027575024 2.1365679e-05 9.3770906e-05)
(0.00026760847 1.9832648e-05 0.00010086779)
(0.00023497203 4.1813982e-05 1.5614346e-05)
(0.00022741177 4.5174872e-05 3.9924327e-06)
(0.00034352637 -5.4391734e-05 9.0616986e-05)
(0.00024805588 -5.2270428e-05 2.3227992e-05)
(0.00021445436 2.4865945e-05 3.1360037e-05)
(0.00026434833 -5.5710198e-05 1.8868367e-05)
(0.00026564241 2.4701102e-05 4.1253877e-05)
(0.00028301932 1.7033835e-05 4.3285825e-05)
(0.00021319598 3.2088277e-05 2.9282835e-05)
(0.00021022118 2.7588315e-05 3.1052282e-05)
(0.0002965535 2.0290614e-05 5.3202145e-05)
(0.00025080997 2.7537136e-05 4.3625952e-05)
(0.00023677218 3.6538481e-05 3.9600023e-05)
(0.00029318975 1.7498437e-05 5.2721454e-05)
(0.0002402451 2.8061716e-05 4.0942235e-05)
(0.00025356487 2.1389382e-05 4.5554562e-05)
(0.00022297283 4.7881751e-05 3.1748614e-05)
(0.00023195934 3.4232269e-05 3.3738577e-05)
(0.00022055526 4.6278725e-05 3.335036e-05)
(0.00024929646 4.0133869e-05 4.204912e-05)
(0.00026012343 3.5579304e-05 5.0647442e-05)
(0.00019902301 1.7770932e-05 3.8944144e-05)
(0.00021818169 -6.9922602e-05 3.4355322e-05)
(0.00027203077 9.7975171e-06 5.570199e-05)
(0.00025796895 3.4583958e-05 4.6226916e-05)
(0.00017196518 -6.0020884e-05 3.7110187e-05)
(0.00019332464 1.9502569e-05 3.7615958e-05)
(0.00023285348 -5.8765953e-05 2.5143301e-05)
(0.00028781977 7.6780622e-06 5.3302001e-05)
(0.00025783948 1.4684448e-05 5.5827874e-05)
(0.00025801221 1.4769184e-05 5.7853529e-05)
(0.00026944469 5.0256096e-06 5.6242128e-05)
(0.00025039758 2.7088304e-05 5.2708174e-05)
(0.0002908481 4.1739977e-06 5.9025048e-05)
(0.00023821789 6.4823998e-06 5.3757317e-05)
(0.00025700687 1.7484271e-05 5.6850182e-05)
(0.00022775861 2.1585311e-05 5.1305203e-05)
(0.00024194928 3.8635841e-05 4.7626575e-05)
(0.00026542284 1.1714902e-05 6.4049235e-05)
(0.0002659162 1.0213123e-05 6.1470351e-05)
(0.0002236113 -3.1165367e-06 5.3576319e-05)
(0.0002834468 5.0945486e-06 7.2330436e-05)
(0.00023885318 2.9008841e-05 4.9114116e-05)
(0.00022751905 2.1113251e-05 5.3146744e-05)
(0.00023075883 1.1564323e-05 5.2723953e-05)
(0.00025167673 4.6715561e-06 6.3831234e-05)
(0.00027395182 2.7517569e-05 6.3696599e-05)
(0.00028409902 1.3642768e-06 7.3240568e-05)
(0.00033266922 1.5627278e-05 8.3274863e-05)
(0.0002570882 3.1857168e-06 6.7754974e-05)
(0.00035128686 1.2003462e-05 9.3166055e-05)
(4.1947552e-05 1.2048416e-05 2.0146278e-05)
(0.0003475895 -4.9206426e-05 0.00018825481)
(0.00032836875 -3.5433731e-05 0.00018374268)
(0.00032390576 -2.1127223e-06 8.3173112e-05)
(0.00031734248 1.0710113e-06 6.4848543e-05)
(0.00027235811 2.2823745e-05 6.0972679e-05)
(0.00036209349 -2.6378522e-05 0.00021851242)
(0.00029013201 1.8899477e-05 7.4047513e-05)
(0.00027425682 1.9938384e-05 6.5245682e-05)
(0.00032643435 -4.2969574e-06 8.7351094e-05)
(0.00033979638 1.4291972e-05 9.064429e-05)
(0.00029090232 1.7018642e-05 7.5966382e-05)
(0.00033633532 9.5662705e-06 8.6898189e-05)
(0.00033098321 -5.2194679e-06 8.6639541e-05)
(0.00030702346 6.4214421e-08 8.4982536e-05)
(0.00029312412 5.8671032e-06 8.1951063e-05)
(0.00033037286 -3.0069527e-06 9.0859457e-05)
(0.00028274075 1.8695026e-05 6.9952017e-05)
(0.00032664205 -3.2613586e-06 9.0664839e-05)
(0.00026380267 3.6763405e-06 7.1294416e-05)
(0.00029417685 1.3014268e-05 7.6161783e-05)
(0.00030458603 1.119549e-05 8.4477545e-05)
(0.00029157997 1.6865993e-06 8.2430604e-05)
(0.00027388278 5.7130801e-06 7.8456499e-05)
(0.00028430521 2.1596367e-05 7.3099172e-05)
(0.00031789622 -1.6527225e-06 9.1282649e-05)
(0.00027224188 2.2616925e-05 6.5204801e-05)
(0.00031773385 -2.9759615e-05 0.00018566887)
(0.00032569442 -7.9078856e-06 9.6159168e-05)
(0.00035723671 1.9990896e-05 9.7921783e-05)
(0.00027944108 1.8069202e-05 7.2262873e-05)
(0.00031438122 -2.1548398e-06 8.9757574e-05)
(0.00035123392 1.6663143e-05 9.1294341e-05)
(0.00032497833 4.9523426e-05 0.00017850207)
(0.0003690686 -7.3582311e-06 0.00010904161)
(0.00032074665 2.7997922e-05 7.9987273e-05)
(0.00037546091 -4.6187177e-06 0.00011100043)
(0.00027294234 1.5869646e-06 7.8022967e-05)
(0.00032985638 8.99688e-06 8.9163224e-05)
(0.00032911116 1.9499937e-06 9.3700156e-05)
(0.00034011459 -1.4056138e-05 0.0001028164)
(0.00034409642 1.3348874e-05 8.8011764e-05)
(0.00031666742 -4.1557688e-06 6.8734778e-05)
(0.00032396112 -4.0444695e-07 9.1108255e-05)
(0.00031391874 1.8359079e-05 7.5187299e-05)
(0.00035015379 -8.7832471e-06 0.00010338322)
(0.00019580663 4.8051822e-05 1.1323679e-05)
(0.00031392706 1.5847337e-05 7.7213448e-05)
(0.00032544216 2.169139e-06 8.8317122e-05)
(0.0003142859 7.3423648e-06 8.0794184e-05)
(0.000334324 -8.452777e-06 8.3675226e-05)
(0.00026983428 1.9885571e-05 6.2433095e-05)
(0.00026667639 2.4043519e-05 5.8821912e-05)
(0.00032975355 -9.8428443e-06 9.3489094e-05)
(0.00027796314 9.8649767e-06 6.6356931e-05)
(0.00030443639 2.5933771e-05 7.0426939e-05)
(5.5110039e-05 1.7871713e-05 3.8169554e-05)
(0.00030012999 1.4338813e-05 6.8676374e-05)
(0.00031664627 -1.3091306e-05 9.309746e-05)
(0.00029968011 2.5615558e-05 6.633725e-05)
(0.00034056482 -1.5860256e-05 0.00010705216)
(0.00036857912 -1.3415417e-05 0.00011065384)
(0.00034258703 -3.5657416e-05 9.5641873e-05)
(8.2071635e-05 -8.3523014e-06 3.6638784e-05)
(0.00030115766 1.4547521e-05 7.0263307e-05)
(0.00029120594 1.8058813e-05 6.3466682e-05)
(0.00029479276 1.0254386e-05 6.5662114e-05)
(0.00033959615 -2.5825318e-05 8.5271776e-05)
(0.00031543643 3.5844962e-06 7.6606174e-05)
(0.00028655635 2.4696547e-05 5.6487343e-05)
(0.00022986295 2.6242971e-05 4.9995096e-05)
(0.00036644745 -2.2292769e-05 0.00011386377)
(0.00028086413 1.5391647e-05 5.5014614e-05)
(0.00027530993 -1.1836805e-05 7.5032993e-05)
(0.00025717239 4.654227e-06 5.734586e-05)
(6.8634823e-05 -1.9071896e-06 4.0965636e-05)
(0.00024215642 1.5339149e-05 5.0962517e-05)
(0.00030074708 1.407721e-05 6.5796206e-05)
(0.00034222505 -7.6174459e-06 9.2692823e-05)
(0.00036383409 -1.9286915e-05 0.00011112436)
(0.00032170648 -1.3828295e-05 9.7592003e-05)
(0.00017557421 -1.4175863e-05 3.6968641e-05)
(0.00030080379 1.445022e-05 6.6366896e-05)
(0.00029828033 2.7184026e-05 6.2943549e-05)
(0.00034474156 4.9147852e-05 0.00011807744)
(0.00029251553 9.3102257e-06 6.3341569e-05)
(0.00034340569 3.8422605e-05 9.9684781e-05)
(8.0462343e-05 5.0354273e-06 3.932983e-05)
(0.00034971442 -1.4988454e-05 0.00010596883)
(0.00030309738 3.7910862e-06 7.1577506e-05)
(0.00032270333 -1.6716895e-05 0.00010075757)
(0.00032191755 -6.6661192e-06 9.1461977e-05)
(0.00031634466 8.6210821e-07 8.8930453e-05)
(7.6233267e-05 -1.4882106e-06 4.5954578e-05)
(5.684017e-05 1.0495954e-05 3.3552821e-05)
(0.00035948052 -3.1919653e-05 9.7219059e-05)
(0.00028726408 -8.5160706e-06 6.075704e-05)
(0.00037712317 -2.6930521e-05 0.00012109817)
(0.0003136599 2.9616255e-06 7.9846949e-05)
(0.00032104958 -1.9404228e-05 9.6789444e-05)
(0.00028256608 -1.6180429e-05 8.1384814e-05)
(0.00027363295 6.671099e-06 6.7412528e-05)
(0.00036865288 -2.2375373e-05 0.00011502044)
(0.000322169 -2.526367e-05 9.8912537e-05)
(0.00038098575 -2.1896717e-05 0.0001232416)
(0.00024949442 -5.4760169e-05 2.4953475e-05)
(0.00032218205 7.8552029e-06 7.8855767e-05)
(0.00036863214 -2.7899882e-05 0.00011665113)
(0.00036272471 -2.6746626e-05 0.00010869793)
(0.00033716772 -1.9431078e-05 0.00010902663)
(0.00035027913 -1.5342857e-05 0.00010757003)
(0.0003317096 -2.1976031e-05 0.00010762903)
(0.00026304802 2.4951838e-05 6.5090794e-05)
(0.00038329482 -2.7700997e-05 0.00012782139)
(0.00031769571 -9.1092314e-06 9.3432694e-05)
(0.00028898095 3.8916888e-05 6.9058646e-05)
(0.00018502232 -2.0685344e-05 4.3469136e-05)
(0.00027886078 2.7096839e-05 6.9878847e-05)
(0.00018552782 2.644619e-05 9.5047893e-06)
(0.00025674144 -6.4604374e-05 2.4816093e-05)
(0.000390453 -2.8763988e-05 0.00012998724)
(0.00038533655 -2.9554027e-05 0.00012814342)
(0.00029950042 -4.8156197e-06 8.2485551e-05)
(0.00033625547 -2.9745431e-05 0.0001225429)
(0.00025113942 4.3795417e-05 1.1825842e-05)
(0.00031857633 -1.2955046e-06 8.3164371e-05)
(0.00034645971 -3.5544004e-05 0.00012920966)
(0.00027465361 2.4590428e-05 6.7961818e-05)
(0.00028816812 3.0998806e-05 6.8867277e-05)
(0.0003391154 -2.6045197e-05 0.00011593298)
(0.00033834526 -3.1399578e-05 0.0001227905)
(0.00032393435 -2.5320308e-05 0.00010474193)
(0.00022905955 2.229239e-05 5.3705563e-05)
(0.00020489184 -3.6531799e-05 2.1616047e-05)
(0.00020764202 -4.1614719e-05 1.9372596e-05)
(0.00033316586 -3.3654847e-05 0.00012195644)
(0.00033763942 -2.5627019e-05 0.00011113008)
(0.00025895074 1.5629139e-05 0.00010258255)
(0.00023006373 -1.6610553e-05 7.8294029e-05)
(0.00022728133 -1.5169469e-05 7.1202561e-05)
(0.000349596 -2.1761956e-05 9.6831673e-05)
(0.00029279754 3.4013908e-05 6.8459503e-05)
(0.00036729146 -2.4008575e-05 0.0001050566)
(0.00036246154 -2.9508843e-05 0.00012100272)
(0.00033344377 -3.9129474e-05 0.00012910917)
(0.00034724548 -2.9227512e-05 0.00011949877)
(0.00033534735 -1.391755e-05 0.00010407965)
(0.00030928056 -3.4412457e-05 0.00011542829)
(0.00032708805 -1.3406282e-05 9.5118606e-05)
(0.00030129435 -5.476929e-06 8.5138022e-05)
(0.00033340104 -2.9140251e-05 0.00011051409)
(0.00033954601 -3.3296541e-05 0.00011783308)
(0.0003524902 -3.5634665e-05 0.0001341817)
(0.00027023424 3.1499234e-05 6.0078124e-05)
(0.0003716506 -1.7731899e-05 0.00011890224)
(0.00027796179 2.3400025e-05 5.9193739e-05)
(0.00030623439 -2.6361411e-05 0.00010977518)
(0.00025363517 -2.8842068e-05 0.00010352071)
(0.00032223877 -3.4316348e-05 0.00012853542)
(0.00040371707 -4.5459167e-05 0.00015860806)
(0.0003656054 -1.7433229e-05 0.0001135487)
(0.00035908202 -2.8146488e-05 0.00011352672)
(0.00034088911 -1.8748444e-05 9.9689461e-05)
(0.00023772857 2.9430172e-05 5.1169056e-05)
(0.00027364439 2.686113e-05 5.5457424e-05)
(0.00023437715 1.7619786e-05 4.6877524e-05)
(0.00035799114 -2.1347003e-05 0.00011117911)
(0.00028011574 -3.4957704e-06 6.7563285e-05)
(0.00029721067 2.2885127e-05 0.00012225349)
(0.00026045435 2.2153255e-06 6.2665498e-05)
(0.00031410761 -3.305767e-05 0.00013063256)
(0.00041697322 -5.1835014e-05 0.00016971053)
(0.00037846321 -4.4268088e-05 0.00015956844)
(0.00031920074 -2.9899527e-05 0.00010474597)
(0.00028829493 2.1998899e-05 5.707877e-05)
(0.00028033563 -1.4808199e-06 6.7946064e-05)
(0.0003125526 -3.6816222e-05 0.00013207817)
(0.00035840457 -3.6317105e-05 0.00013774376)
(0.00030158529 -3.2579565e-05 0.00012148259)
(0.00030451201 -3.0156153e-05 0.00011149445)
(0.00022450111 -6.6097906e-05 2.9890114e-05)
(0.0004238439 -4.5730355e-05 0.00016919553)
(0.00035055227 -2.6930454e-05 0.00011546388)
(0.0003836213 -4.4213838e-05 0.00016930297)
(0.00031900073 -2.1608677e-06 8.045161e-05)
(0.00022991132 -6.5083743e-05 3.0681023e-05)
(0.00016807971 -3.830358e-05 5.6937979e-05)
(0.00029905745 -2.9595055e-05 0.00012303736)
(0.00025613621 2.739783e-05 5.849893e-05)
(0.00025974721 1.1497153e-05 5.8990633e-05)
(0.00033336512 -3.1063164e-05 0.00012694073)
(0.00038420629 -4.0570835e-05 0.00016585457)
(0.00031928453 -1.3818634e-06 7.0290272e-05)
(0.00039171485 -4.0815238e-05 0.00016908717)
(0.0002877729 3.6591906e-05 6.664679e-05)
(0.00037045948 -3.4309301e-05 0.00012334816)
(0.0003534367 -3.03841e-05 0.00012288479)
(0.00035355528 -4.0418742e-05 0.00014455742)
(0.0002996444 -2.326192e-06 7.1834826e-05)
(0.00020297388 -3.7939952e-05 1.8888441e-05)
(0.00037529581 -4.1328424e-05 0.0001654852)
(0.00038035037 -3.9841937e-05 0.00016443427)
(0.00037834857 -3.8521317e-05 0.0001314042)
(0.00032650552 -3.6139905e-05 0.00012947658)
(0.00022983819 4.6177109e-05 1.9247267e-05)
(0.00032363765 -4.585554e-05 8.8790101e-05)
(0.00018882313 -5.6220843e-05 5.3154589e-06)
(0.00037686334 -4.1927279e-05 0.0001741304)
(0.00033890351 -3.5831984e-05 0.0001542808)
(5.2163625e-05 1.1901104e-05 3.4094605e-05)
(0.00031784152 -8.2235286e-06 8.4904903e-05)
(0.0003342018 -4.0023472e-05 0.00015820087)
(0.00032634897 -3.9983287e-05 0.00014798976)
(0.00026686309 3.2232095e-05 5.4762311e-05)
(0.00031850331 -8.5659441e-06 9.0558918e-05)
(0.00038544643 -3.8612448e-05 0.00016658467)
(0.00037100121 -2.3322551e-05 0.00011182825)
(0.00037967554 -4.1415456e-05 0.000177023)
(0.0002957543 -3.1824859e-05 0.00012275002)
(0.00037099072 -3.8634e-05 0.00017818075)