/*--------------------------------*- C++ -*----------------------------------*\
  =========                 |
  \\      /  F ield         | OpenFOAM: The Open Source CFD Toolbox
   \\    /   O peration     | Website:  https://openfoam.org
    \\  /    A nd           | Version:  11
     \\/     M anipulation  |
\*---------------------------------------------------------------------------*/
FoamFile
{
    format      ascii;
    class       volVectorField;
    location    "10000";
    object      wallShearStress;
}
// * * * * * * * * * * * * * * * * * * * * * * * * * * * * * * * * * * * * * //

dimensions      [0 2 -2 0 0 0 0];

internalField   uniform (0 0 0);

boundaryField
{
    wall-fluid_domain
    {
        type            calculated;
        value           nonuniform List<vector> 
50028
(
(0.00018793922 -2.7391818e-05 0.00026292553)
(0.0001427506 7.3408914e-06 0.00020956308)
(0.0001838215 -1.1329461e-05 0.00030256871)
(0.00017901846 -1.3998765e-05 0.0003033624)
(0.00023298259 -1.2314047e-05 0.0002386556)
(0.00023473965 -1.1008976e-05 0.00022687851)
(0.00023450219 -6.989652e-06 0.00022212562)
(0.00019575762 2.9333555e-05 0.00020554955)
(0.00019049866 -2.1427646e-05 0.00025165059)
(0.00020274143 2.3439697e-05 0.00020988741)
(0.00022242203 1.5595587e-05 0.00022736812)
(0.0001944895 1.9809546e-05 0.0001886945)
(0.00020488208 2.1763756e-05 0.00022664431)
(0.00021561707 1.4209342e-05 0.00022325513)
(0.00021221417 9.4852246e-06 0.00020779982)
(0.00021831486 1.0682329e-05 0.00021140418)
(0.00014611937 2.1929425e-05 0.00019108426)
(0.00014168023 2.3856561e-05 0.00014103215)
(0.00018262996 1.5368068e-05 0.00020357357)
(0.00021967407 -1.5985138e-05 0.00036328352)
(0.00020429673 1.2103625e-05 0.00020059752)
(0.00022008223 2.1320179e-05 0.00027025793)
(0.00014505874 1.7427461e-05 0.00012972449)
(0.0002045559 2.4643188e-05 0.00017300151)
(0.00020034236 -5.1988846e-08 0.000185052)
(0.00020864302 1.6812081e-05 0.0002182538)
(0.00018177096 1.7609526e-05 0.00016637317)
(0.00018956269 4.0546473e-06 0.00018551291)
(0.00019836657 1.0604268e-05 0.00020887282)
(0.00017076349 5.7395163e-06 0.00015932382)
(0.00019235558 4.3122331e-06 0.00017805423)
(0.00018466162 8.2942255e-06 0.000183945)
(0.00019352564 1.4422478e-05 0.00020848675)
(0.00018492443 -2.8171178e-06 0.00017713076)
(0.0002063857 3.5978412e-06 0.00020576498)
(0.00021293383 9.4118689e-06 0.00019487021)
(0.00013977376 -1.6161828e-05 0.00017220423)
(0.00018363271 -1.1930498e-06 0.00017878807)
(0.00016425957 3.0494777e-06 0.00019713726)
(2.4277776e-05 -6.8142174e-06 6.229271e-05)
(0.0001893265 1.6911713e-05 0.00023461465)
(7.6043662e-05 -5.5789458e-06 0.00013284646)
(6.1625905e-05 2.4962381e-06 0.00011545137)
(8.5452648e-05 -5.270199e-06 0.00012831316)
(0.00025541968 -4.4480493e-05 0.00026205521)
(6.7123005e-05 2.7128012e-06 0.00010579555)
(7.5327257e-05 -6.0334146e-06 0.00011941586)
(8.6965216e-05 -7.7672605e-06 0.00012345936)
(0.00025547792 -3.8839116e-05 0.0002753662)
(7.0401969e-05 -9.2403649e-06 0.00010814312)
(3.4759941e-05 7.8272038e-06 7.5702119e-05)
(6.8878013e-05 -9.0587017e-06 0.00010075853)
(2.8964557e-05 8.2655489e-06 7.7947189e-05)
(9.2067397e-05 -1.2180506e-05 0.00011570492)
(4.5648116e-05 -1.0140035e-06 8.2438211e-05)
(9.7326455e-05 -1.3725779e-05 0.0001415125)
(4.092989e-05 -1.5376958e-06 8.962818e-05)
(9.9961515e-05 -9.9233067e-06 0.00015492894)
(0.0002109214 -4.4406948e-05 0.00023892727)
(0.00011089421 -2.4978243e-05 0.00014188837)
(7.7142428e-05 -1.9912122e-05 0.00010430825)
(0.000179635 1.8770218e-06 0.00022707042)
(9.7496252e-05 -1.6453604e-05 0.00011365551)
(0.00022483873 -4.942437e-05 0.00028128155)
(0.00024019114 -4.856896e-05 0.0002860159)
(5.0535435e-05 -7.0625259e-07 6.9928957e-05)
(0.00021432189 -1.6149543e-05 0.00035995348)
(0.0001075714 -1.9971506e-05 0.00010955018)
(0.00011267775 -2.0594958e-05 0.00013112304)
(0.0001757532 -4.3517255e-06 0.00022521952)
(0.00021793034 -2.6654931e-05 0.00022820778)
(0.00012632393 -3.1914187e-05 0.00013809747)
(0.00024316721 -1.1677516e-05 0.00040499992)
(0.00021131854 -2.1741209e-05 0.0002183111)
(0.00011354189 -1.7118167e-05 0.00010132961)
(6.2471872e-05 -1.2753059e-05 8.2113003e-05)
(4.739401e-05 -1.0703807e-05 6.7815306e-05)
(0.00019410498 -3.0622056e-05 0.00021390168)
(0.00010584302 -2.5626425e-05 0.0001043478)
(0.00013326717 -2.4697127e-05 0.00013091698)
(0.0001111255 -2.5093515e-05 0.00011564429)
(0.00017544966 9.9497856e-07 0.00021807171)
(0.000118684 -3.9728305e-05 0.00010891866)
(8.5747697e-05 -2.8038792e-05 0.00010403987)
(0.00024717754 2.5211469e-05 0.00031970123)
(0.00011852629 -3.9577133e-05 0.00010512429)
(0.00011565853 -3.1879936e-05 0.00010612767)
(0.00011998199 -3.1060174e-05 9.7561187e-05)
(0.00023201742 -1.2082685e-05 0.00039855494)
(9.6719517e-05 -4.0565577e-05 8.7196358e-05)
(0.00023245388 -4.3593355e-05 0.00025780247)
(0.00010969583 -3.9992241e-05 7.6691503e-05)
(2.2868042e-05 1.1002418e-05 6.1381731e-05)
(8.5222357e-05 -2.9008228e-05 8.8618514e-05)
(3.5385811e-05 -1.6519446e-06 6.8729503e-05)
(9.6580734e-05 -4.4491879e-05 6.2608082e-05)
(0.00013941679 -2.0622456e-05 0.00013881949)
(0.00023858262 2.7683592e-05 0.00030867211)
(9.2007531e-05 -4.3376615e-05 7.7595368e-05)
(0.00012839506 -4.1342366e-05 0.00010051508)
(0.00012614936 -2.6620621e-05 0.00011571058)
(2.0628113e-05 1.8697854e-05 6.0485627e-05)
(0.00022425821 3.5656833e-05 0.0003036306)
(5.6543022e-05 -1.1040928e-05 7.0344717e-05)
(0.00022545663 2.2575993e-05 0.00027120315)
(1.0619819e-05 2.2172379e-05 5.268455e-05)
(0.0001345876 -3.5508845e-05 0.00010627544)
(0.00012576971 -2.9836324e-05 0.00012462238)
(0.00012683855 -3.2483923e-05 0.00010831017)
(0.00019447302 -2.0229601e-06 0.00023812623)
(0.00010313644 -6.5437079e-05 6.3866827e-05)
(7.7723038e-05 -4.6029668e-05 7.1620102e-05)
(6.6072374e-05 -2.7218022e-05 7.6829268e-05)
(4.1835329e-05 -1.2346007e-05 5.999571e-05)
(4.4809471e-05 1.1153861e-07 6.6315277e-05)
(5.3315837e-05 -1.9692283e-05 5.5894503e-05)
(2.204047e-05 8.58809e-06 4.4606708e-05)
(2.2809395e-05 1.3012434e-05 6.3792454e-05)
(5.2790769e-05 -2.8310918e-05 5.5154021e-05)
(4.0780383e-05 -1.3870053e-05 5.5376958e-05)
(4.642447e-05 -1.580984e-05 4.9330888e-05)
(9.8916592e-06 3.2655206e-05 4.1022048e-05)
(3.6638735e-05 -8.4179691e-06 5.6653961e-05)
(4.0451805e-05 -4.9324515e-06 6.3625941e-05)
(3.7189533e-05 4.7266867e-06 5.8789392e-05)
(2.7434872e-05 1.2025065e-05 5.541913e-05)
(2.262865e-05 2.0822421e-05 5.8379167e-05)
(1.8449432e-05 2.4019236e-05 5.692504e-05)
(1.3925857e-05 1.4567202e-05 5.8429741e-05)
(0.00017920258 3.8634876e-05 0.00023588504)
(1.5419042e-05 2.7809988e-05 4.754658e-05)
(0.00018802238 -3.530835e-05 0.0002440204)
(0.00017505932 -3.5001288e-05 0.00023941811)
(1.1040928e-05 3.4457885e-05 4.4270206e-05)
(4.6268018e-06 2.5154135e-05 4.9493809e-05)
(0.00017071498 -2.1026275e-05 0.00020663673)
(3.253583e-05 1.9367453e-06 6.520252e-05)
(1.3102034e-05 3.5234995e-05 4.2278297e-05)
(2.790241e-06 3.3929541e-05 3.3042461e-05)
(2.1559201e-05 1.5953626e-05 5.4196916e-05)
(2.8620425e-05 -9.9728476e-06 3.8338264e-05)
(0.00016913362 -1.3557926e-05 0.00019711339)
(8.7063595e-07 2.5973365e-05 4.2949764e-05)
(0.00019164761 -4.6357597e-05 0.00025341507)
(8.1769925e-05 -6.1394238e-05 5.2389045e-05)
(-3.3634177e-06 3.2698791e-05 3.1808199e-05)
(6.9595469e-06 3.9801244e-05 3.2045309e-05)
(7.7910787e-05 -4.3346787e-05 6.2157965e-05)
(0.00021521906 6.3765658e-06 0.000248757)
(2.2874496e-05 1.8205716e-05 4.1926663e-05)
(5.683967e-05 -2.9629947e-05 4.8232692e-05)
(3.8928894e-05 -1.9034063e-05 3.1312501e-05)
(2.998433e-05 -3.2511967e-06 5.8679136e-05)
(4.6426087e-06 3.9660798e-05 1.7934184e-05)
(-1.5739924e-06 4.1084015e-05 2.2391931e-05)
(-7.3917526e-06 3.904089e-05 2.5467889e-05)
(-2.2465948e-06 3.9042743e-05 1.5938074e-05)
(0.00016547496 -2.8913194e-05 0.0002204111)
(1.8972147e-05 9.2434067e-06 4.6536123e-05)
(3.6968269e-05 -1.8207867e-05 3.8922371e-05)
(2.6132565e-06 2.848237e-05 2.6838702e-05)
(2.1100869e-05 2.5527302e-06 4.2584819e-05)
(0.00018458931 -1.2895381e-05 0.00030111454)
(3.4457431e-05 -2.476507e-05 3.0709168e-05)
(1.0147197e-05 1.3749932e-06 1.4868766e-05)
(4.8329411e-05 -3.3408986e-05 4.1725664e-05)
(0.00015214998 -1.2905548e-05 0.00025585721)
(2.4235647e-05 -4.3599985e-06 2.8975797e-05)
(5.9241278e-05 -4.7765548e-05 4.4595504e-05)
(-1.6458665e-05 6.1268818e-06 -4.1359047e-05)
(1.7365105e-05 -5.3616197e-06 1.6905021e-05)
(8.1193686e-05 -5.9837168e-05 3.9781328e-05)
(3.101345e-05 -2.0807422e-05 3.3127551e-05)
(1.456753e-05 -2.3784812e-05 3.5301894e-06)
(2.0555005e-05 -3.1370402e-05 8.8687045e-06)
(2.3097161e-05 -3.1832151e-05 2.4516934e-05)
(0.00023106012 2.9674443e-05 0.00033795014)
(0.00020918565 -1.5514033e-05 0.00035892841)
(0.00017372151 -7.8820732e-06 0.00027827137)
(2.916372e-05 -3.7498707e-05 1.9495717e-05)
(3.581182e-05 -3.2495957e-05 2.8571342e-05)
(6.1355724e-05 -5.5014314e-05 2.8464281e-05)
(4.9330061e-05 -4.2862991e-05 2.7378345e-05)
(-1.5522864e-05 3.565264e-05 -1.1866365e-07)
(3.5781867e-05 -5.1319591e-05 2.1026624e-05)
(2.2432057e-06 -3.1320256e-05 -5.8957324e-06)
(2.4055621e-05 -3.7868161e-05 1.2873624e-05)
(5.8260191e-05 -5.2144466e-05 3.4405612e-05)
(0.00020102297 -1.3293057e-05 0.00032572815)
(-4.0844176e-05 3.1162208e-05 -2.5469195e-05)
(4.6866506e-05 -5.2252478e-05 2.3118331e-05)
(6.2706917e-05 -5.5160986e-05 3.086895e-05)
(-2.9414e-05 -9.5034487e-06 -4.2010626e-05)
(3.3540658e-05 -4.7819178e-05 1.1057748e-05)
(-3.0149178e-05 -2.6520946e-05 -4.3654331e-05)
(3.3283398e-06 -5.3092752e-05 -1.1413267e-05)
(0.00017185371 -1.2520904e-05 0.00021265103)
(4.1567378e-05 -5.8249942e-05 1.2348136e-05)
(3.2967727e-05 -5.396842e-05 7.0144735e-06)
(0.00011583362 -5.769574e-05 5.5012208e-05)
(2.5187711e-05 -5.8771993e-05 -8.8044495e-06)
(3.6237552e-05 -6.0171156e-05 -7.32207e-06)
(4.1535153e-05 -7.9855309e-05 -8.0925792e-06)
(-6.8544683e-07 -7.201518e-05 -4.1518243e-05)
(-1.4691999e-06 -6.1843487e-05 -4.0933806e-05)
(0.00021735365 -1.7432488e-05 0.00035121235)
(5.8358584e-05 -6.2106218e-05 1.3340263e-05)
(0.00022381017 -3.8424152e-05 0.00023243539)
(-3.742005e-06 -7.2481399e-05 -5.3120869e-05)
(1.8351761e-05 -7.4677318e-05 -3.6652513e-05)
(1.5506995e-05 -7.5901062e-05 -4.8788216e-05)
(0.00013030733 -3.8138866e-05 9.2843898e-05)
(0.00015768032 -2.7343062e-05 0.0001229605)
(3.5797133e-05 -7.8215051e-05 -2.0077972e-05)
(-3.5526306e-05 -6.3211009e-05 -7.2299375e-05)
(-2.2661415e-05 -7.1496567e-05 -7.3340159e-05)
(0.00011829194 -1.3006454e-05 0.00013313351)
(0.00015882347 -3.4260232e-05 0.00014140317)
(3.1488824e-05 -7.524147e-05 -3.2951055e-05)
(-2.1099253e-05 -7.1829017e-05 -8.1136702e-05)
(-2.6002974e-06 -7.5884764e-05 -6.6308348e-05)
(-5.5140529e-06 -8.1623215e-05 -5.9806411e-05)
(-3.8081454e-05 -7.6358761e-05 -9.4414237e-05)
(9.095199e-05 -7.5857287e-05 4.2412666e-05)
(0.00011582521 -1.8657448e-05 0.00012428871)
(-2.2678126e-05 -7.609504e-05 -8.9980026e-05)
(7.2126421e-06 -8.0424263e-05 -6.7892198e-05)
(-2.489551e-05 -8.1485787e-05 -8.9463197e-05)
(0.0001189589 -4.8455519e-05 8.2281479e-05)
(-3.2736985e-05 -7.1466982e-05 -8.7570175e-05)
(0.00013119503 -4.7488807e-05 9.4123338e-05)
(-3.3899193e-05 -7.2079981e-05 -9.643346e-05)
(-1.5984029e-05 -7.6230585e-05 -8.2309065e-05)
(-3.5032706e-05 -6.9458461e-05 -9.6487676e-05)
(0.00017700851 2.2608566e-05 0.00020484192)
(-1.8558916e-05 -6.8736941e-05 -8.8115488e-05)
(-2.1277429e-05 -6.2550636e-05 -8.3271819e-05)
(0.00021435882 9.4059854e-06 0.00023073834)
(-3.3401426e-05 -6.7244504e-05 -9.5591246e-05)
(5.860053e-05 -7.4479297e-05 -5.3671143e-06)
(3.2050719e-05 -7.2466997e-05 -3.4567519e-05)
(-4.2479944e-05 -6.451377e-05 -9.1842706e-05)
(-3.7574573e-05 -5.795334e-05 -8.5210844e-05)
(0.00012304684 -1.8251995e-05 0.0001540679)
(-1.2872398e-05 -3.4633665e-05 -2.6966224e-05)
(-3.9304805e-07 -6.3398145e-05 -7.0464641e-05)
(1.0624969e-05 -8.0484944e-05 -6.5766755e-05)
(-3.9303773e-05 -5.8033174e-05 -9.2866659e-05)
(0.00019427064 -1.3417322e-05 0.00033787074)
(-3.4959947e-05 4.5365339e-06 -5.7065507e-05)
(-3.9737657e-05 3.3687324e-05 -4.9356991e-05)
(0.00010612684 -5.1452943e-06 0.00014963366)
(0.0002026342 3.1452112e-06 0.00020808992)
(-3.6924891e-05 -5.4866173e-05 -8.4638179e-05)
(0.00018000023 -4.2045484e-07 0.00017693348)
(-4.3359868e-05 -5.8138168e-05 -9.3379911e-05)
(-3.4243233e-05 -5.5159481e-05 -6.0240817e-05)
(-3.3866308e-05 -3.5521593e-05 -5.6679694e-05)
(-4.5898325e-05 -4.892326e-05 -9.0340613e-05)
(3.9579562e-05 -7.091269e-05 -2.0018797e-05)
(-4.2368896e-05 -5.6406986e-05 -8.1451495e-05)
(7.6527042e-06 -6.3017296e-05 -6.4343233e-05)
(2.3781219e-05 -7.3092914e-05 -5.9826837e-05)
(0.00019333297 1.5075856e-05 0.00023506231)
(-3.0978304e-05 -5.9636341e-05 -7.6229839e-05)
(0.00014131373 1.3112013e-05 0.00017900758)
(8.1575527e-05 -6.7499864e-07 0.00014799698)
(0.00017270081 -2.1168486e-06 0.00016178592)
(3.2755458e-05 -6.8986236e-05 -3.7914349e-05)
(7.3200265e-05 -6.6569891e-05 8.7660572e-06)
(-1.0980943e-05 4.5638338e-05 5.7584072e-06)
(5.367527e-06 -5.4565142e-05 -4.3966935e-05)
(-1.2949861e-05 -5.9638641e-05 -7.5895012e-05)
(2.3055676e-05 -6.010196e-05 -4.216935e-05)
(-4.8641811e-05 -5.9150398e-05 -9.5523446e-05)
(3.6996719e-05 -6.9358628e-05 -3.5198884e-05)
(0.0002104853 3.0068254e-06 0.00017686823)
(2.8059607e-05 -6.0076206e-05 -3.0400729e-05)
(-1.5775926e-05 -6.6010435e-05 -7.2573044e-05)
(-4.5332969e-05 -6.5749426e-05 -9.8457333e-05)
(0.00013639244 -2.8593807e-05 9.999627e-05)
(-5.1289158e-05 1.6204125e-05 -5.4720182e-05)
(0.00015816108 -2.9076251e-05 0.0001157773)
(0.00015959109 -3.3421328e-05 0.00013505349)
(5.2107485e-06 -7.2593798e-05 -6.2961444e-05)
(2.10598e-05 -5.1846205e-05 -3.4272828e-05)
(-3.9292248e-05 -6.2857689e-05 -9.6175654e-05)
(-4.7996393e-05 -4.7872934e-05 -8.8958064e-05)
(4.5783037e-05 -6.5194931e-05 -2.1575144e-05)
(4.5779333e-05 -6.0573358e-05 -1.8537739e-05)
(4.4580754e-05 -5.8483284e-05 -3.8125269e-05)
(2.3611209e-05 -4.8511249e-05 -3.9493221e-05)
(-4.6558934e-05 -5.8878804e-05 -8.3067209e-05)
(9.4203408e-05 6.5287837e-06 0.00015635005)
(-2.2187498e-05 5.6746551e-05 -1.025557e-05)
(-4.1875162e-05 -4.6728054e-05 -6.6044484e-05)
(2.241148e-05 -5.9033526e-05 -4.4941618e-05)
(6.1366721e-05 -7.3149857e-05 3.8992926e-06)
(-4.3486154e-05 -9.0237996e-06 -5.9622323e-05)
(0.00015046659 -2.8104712e-05 0.00014808186)
(0.00012580692 -5.4395442e-05 7.8736058e-05)
(-4.7476555e-05 -2.9021732e-05 -7.8490252e-05)
(8.9671678e-05 -8.8863048e-05 1.1240951e-05)
(0.00025029031 -3.7738545e-05 0.00025507022)
(0.00013887864 -4.3767802e-05 9.3760253e-05)
(0.00015157203 1.0018622e-05 0.00019978503)
(0.00012594831 -1.3085167e-05 0.00013415161)
(-6.2040859e-05 -4.5644835e-05 -9.7364921e-05)
(5.4244761e-05 -6.2053759e-05 -1.1106089e-05)
(5.565594e-05 -6.0127865e-05 -8.1441957e-06)
(0.00010460032 -7.3711326e-05 -2.192113e-06)
(0.00013151734 -5.0483673e-05 8.69979e-05)
(-5.4366306e-05 -1.736311e-06 -6.7553502e-05)
(-4.2996933e-05 -5.2704449e-05 -8.1421876e-05)
(-4.4143615e-05 2.3556589e-05 -6.1905647e-05)
(0.00019055551 7.4236292e-06 0.00024248741)
(-4.4223338e-05 3.4517685e-06 -6.2675066e-05)
(-4.130366e-05 -4.1161987e-05 -7.6124146e-05)
(-5.6672346e-05 -1.4815174e-05 -8.7094085e-05)
(-5.8097266e-05 -3.1970828e-05 -8.970742e-05)
(0.00019748369 -9.6741571e-06 0.00032301932)
(0.00017396688 3.2351263e-06 0.00022276984)
(-5.0075707e-05 -2.6193318e-05 -8.9374334e-05)
(0.00017036579 -8.4739366e-06 0.00027684636)
(0.00017405312 -7.1102523e-06 0.00027863571)
(0.00017668197 -4.5741001e-06 0.00026900463)
(8.7999799e-05 -6.7577472e-05 3.2008375e-05)
(9.075301e-05 -7.1621992e-05 3.83546e-05)
(0.00012927078 -1.4012904e-05 0.00014779397)
(-5.1909732e-05 -4.1403966e-05 -9.3965989e-05)
(0.00016623618 -1.4380828e-05 0.00012017866)
(0.0001730098 2.0471704e-06 0.000221708)
(0.00016396033 -2.4592144e-05 0.00011893853)
(0.00015514462 -3.9038253e-05 0.00010408962)
(0.00016252966 -2.2749818e-05 0.00013858138)
(0.00016231468 -2.1475511e-05 0.00012749071)
(0.00016570769 -2.854848e-05 0.00011080216)
(0.00017136858 -4.1666798e-06 0.00021548576)
(9.9650189e-05 -9.5829554e-05 3.3357362e-05)
(0.00017182974 -1.097151e-05 0.00012305185)
(0.00016707861 -2.5247472e-05 0.00014663405)
(0.00017242203 -3.2920635e-05 0.00011133646)
(0.00010347185 -9.1448034e-06 0.00013470494)
(0.00016019932 -2.0897933e-05 0.00014593377)
(0.00014703496 -1.1134407e-05 0.00011775157)
(-4.5811209e-05 -2.6301277e-05 -7.774029e-05)
(0.00016984759 -2.0555472e-05 0.00013000979)
(0.00015223918 -6.5184128e-06 0.00012734167)
(0.00016389377 -1.4751084e-05 0.00011533783)
(0.00018997567 -2.7743536e-05 0.00013004491)
(0.00014812716 -9.3571696e-06 0.00012024898)
(0.00018063243 -1.5176692e-06 0.00013748469)
(0.00019443345 -6.6058239e-06 0.00024184635)
(0.00016995284 -6.2622924e-06 0.00012914641)
(0.00018741368 -3.5174152e-06 0.00013890717)
(0.00015177481 -5.2197756e-06 0.00013118341)
(0.00016934932 -6.269787e-06 0.00014131424)
(0.00021261034 2.3631702e-05 0.00024406813)
(0.00016248768 -1.8006708e-05 0.00015450203)
(0.00014533302 -3.4722432e-05 9.195969e-05)
(0.00011442391 -6.6497312e-05 6.9068556e-05)
(0.00018248851 -1.1646763e-05 0.00014521865)
(0.00020868307 1.5822734e-05 0.00023007037)
(0.00016766539 -6.0351495e-06 0.00015119374)
(9.7348953e-05 -5.3661356e-05 3.548866e-05)
(0.00017769293 -3.1158086e-06 0.00021149954)
(0.00010697967 -7.2066131e-05 4.2861769e-05)
(0.00011122655 -5.9982023e-05 6.0786019e-05)
(0.00019655022 8.8197316e-06 0.00020439525)
(0.0001358088 -4.431526e-05 8.5361285e-05)
(0.00018748673 -3.1555172e-06 0.00021801966)
(0.00020198653 -4.6904419e-05 0.00024855401)
(0.00018472148 -4.7922474e-05 0.00011797995)
(0.00014389523 6.4820388e-06 0.00014657194)
(0.000141184 -1.8901807e-07 0.00014379936)
(0.00012416705 -5.5327394e-05 7.2901759e-05)
(0.00016978928 -4.7467085e-05 0.00011243432)
(0.00011646046 -5.1567154e-05 6.1957355e-05)
(0.00017519642 -8.3013511e-06 0.00027303694)
(0.00017239188 -1.0593233e-05 0.00027504817)
(0.00018458522 -2.3058606e-05 0.00012721303)
(0.00012542781 -4.3470144e-05 7.2982377e-05)
(0.00012373289 -6.1013964e-05 5.8625713e-05)
(0.00018429431 -3.3901972e-07 0.00017159117)
(0.00010339123 -6.1573112e-05 4.8541662e-05)
(0.00017903621 -3.5228574e-05 0.00011249307)
(0.00014357693 -4.7886246e-05 8.0358821e-05)
(0.00020860734 -4.479234e-05 0.000232127)
(0.00011487231 -7.5017468e-05 5.0728025e-05)
(0.00012038611 -5.2808058e-05 6.28997e-05)
(0.0001184563 -4.9474326e-05 5.9737374e-05)
(0.00015766715 -4.4329712e-05 9.953114e-05)
(0.00015997974 -2.0437199e-05 0.00010443786)
(0.00015767936 -1.7508115e-06 0.0001398345)
(0.00012132979 -1.6097646e-05 0.00012689063)
(0.00012305459 -4.3264406e-05 6.5840696e-05)
(0.00013270487 -6.432797e-06 0.00012881717)
(0.00014648711 -4.9354302e-05 8.7111498e-05)
(0.00015843086 -3.9558698e-05 9.5046105e-05)
(0.00015720254 -3.4550724e-05 9.2916202e-05)
(0.00012274532 -3.9046823e-05 6.4986486e-05)
(0.00017113604 -2.9833197e-05 0.00011236192)
(0.0001721392 1.2875458e-06 0.00014272083)
(0.00014840017 -3.6873613e-05 7.8752585e-05)
(0.00016610335 -3.0148769e-06 0.00014741659)
(0.00016488503 -1.1395951e-05 0.00015603127)
(0.00016028265 -3.3149693e-05 9.991077e-05)
(0.00017809147 -1.0092153e-05 0.00027106275)
(0.00017733044 -3.2893299e-05 0.00011933945)
(0.00019558096 3.6323795e-06 0.00022441477)
(0.0001650104 -2.0450889e-05 0.00011292211)
(0.00025982239 -3.3373448e-05 0.00025604825)
(0.00015448004 -2.4477662e-05 9.0594412e-05)
(0.00015545781 -4.5873356e-05 8.6743645e-05)
(0.00015009745 -2.4255675e-05 0.00019433595)
(0.00011744198 -3.9813658e-05 5.7347313e-05)
(0.00023132026 -3.533898e-05 0.00024521745)
(0.00016168838 -1.5096234e-05 0.00010995694)
(0.00018351231 -1.6530567e-05 0.00012635947)
(0.0001754446 -1.5481209e-05 0.0001226889)
(0.00015125698 -3.9088151e-05 7.7105556e-05)
(0.00013776124 -9.8018756e-06 0.00015230819)
(0.00011534566 -4.5517787e-05 6.2519718e-05)
(0.00012836947 -1.0844151e-05 0.00013395713)
(0.00015428344 -1.1282402e-05 0.00015767796)
(0.0001699499 -7.6456261e-06 0.00015680812)
(0.00017277991 -1.1261688e-06 0.00015227725)
(0.0002266142 -2.9236047e-05 0.00023579838)
(0.00010422735 6.1278912e-06 0.0001608862)
(0.00017988582 -2.0415375e-05 0.00018052768)
(0.00014569621 1.1324524e-06 0.00020376545)
(0.00010994985 -1.2502087e-05 0.00013678401)
(0.00014042279 1.0818212e-05 0.00017766707)
(0.00011445365 -3.5407716e-06 0.00014625787)
(0.00014776391 -1.5464501e-05 0.00016986925)
(0.0001506006 -1.6847095e-05 0.00017696657)
(0.00015905196 -1.0074749e-05 0.00016214136)
(9.161283e-05 -4.3013567e-06 0.00014328087)
(0.00014692006 -5.3578322e-06 0.00016403783)
(0.00020326607 -7.1772429e-06 0.00032471657)
(0.00020053782 -7.8113573e-06 0.00032196722)
(0.00020218237 -1.0597239e-05 0.00033247696)
(0.00014653159 -1.8019123e-05 9.9305812e-05)
(0.00021062532 1.6749491e-05 0.00024909629)
(0.00020310772 8.5753792e-06 0.00022845749)
(-6.1231694e-06 1.8803912e-05 -5.1185425e-05)
(0.00013800703 -4.8636754e-06 0.00017415215)
(0.00019910092 1.1853775e-05 0.0002318753)
(0.00015331589 -3.0086079e-05 8.678628e-05)
(0.00025255223 -3.8983026e-05 0.00025790008)
(0.00019373635 8.144646e-06 0.00023334545)
(0.00019483948 7.8955391e-07 0.00022973445)
(0.00020710781 1.8631732e-05 0.0002492122)
(0.00015705772 -3.1191921e-05 8.5675956e-05)
(0.00017989951 1.3535524e-05 0.00020926663)
(0.00020466668 2.0747841e-05 0.00024756348)
(0.00018433177 8.717054e-06 0.00019056739)
(0.00012781066 5.827468e-06 0.00014796365)
(0.00013631567 6.9333136e-06 0.00016870139)
(0.00018457976 -1.3161085e-05 0.0003086784)
(0.00014979655 -4.2130568e-06 0.00016064397)
(0.00014996048 -2.1954189e-06 0.00016345708)
(0.00013811669 -1.3921333e-06 0.00013317552)
(0.00015099831 -1.8824399e-06 0.0001706063)
(0.00016550751 -7.0364668e-06 0.00014597052)
(0.00015194565 -8.849675e-06 0.00016361269)
(0.00014675389 -3.9777463e-06 0.00016571071)
(0.00014019383 -1.789314e-05 0.00011953501)
(0.00017503685 -1.3503113e-05 0.00015535373)
(0.00014946708 -1.2750929e-05 8.7584695e-05)
(0.00015087832 -1.1052228e-05 0.00025221692)
(0.00012110915 -2.5409472e-06 0.00014331451)
(0.00012549284 -1.3421838e-05 0.00012233304)
(0.00012609369 -1.3397362e-05 0.0001105487)
(0.0001304868 -1.0595626e-05 0.0001624313)
(0.00011404352 -5.7315346e-06 0.00012063463)
(0.00014548752 -2.0371175e-05 0.00012081092)
(0.00020952877 -1.3775019e-05 0.00033460806)
(9.915446e-05 -2.1165141e-05 6.1454705e-05)
(-1.317004e-05 7.4194318e-06 -4.0660297e-05)
(0.00019366969 1.0962839e-05 0.00023004714)
(0.00012575627 -8.6699327e-07 0.00011670366)
(0.00017612525 -1.6606053e-05 0.00015645326)
(0.00019079512 1.8026121e-05 0.0002326554)
(0.00018296475 -9.8413037e-07 0.00021886778)
(0.00016353305 1.5990527e-07 0.00019738141)
(0.00014782227 -2.110868e-05 0.0001226973)
(-4.7513683e-05 -1.2764095e-05 -8.3041543e-05)
(-5.7589651e-05 1.2378891e-05 -6.6742573e-05)
(0.00015437646 -5.5419829e-06 0.00013071999)
(0.00015493234 1.3220611e-05 0.00020401576)
(0.00014315321 -1.4135533e-06 0.00017846087)
(0.00013413872 -2.9632836e-05 0.00010403972)
(0.00015139 -1.2429116e-05 0.00011920794)
(0.00019244584 -1.4977406e-05 0.0001517517)
(0.0001245055 -5.3861721e-06 0.00015538468)
(0.00014899193 -1.7357441e-05 0.00010828484)
(0.00012895129 -1.8622816e-05 8.9869291e-05)
(0.00015250294 -1.2654522e-05 0.00010623893)
(0.00017525864 1.0881992e-06 0.00021686138)
(0.0001909054 7.5654244e-06 0.00023091409)
(-5.8831392e-05 -2.6430913e-05 -8.3376906e-05)
(0.0001251776 -2.7773993e-05 8.0771941e-05)
(0.000145704 1.2002866e-05 0.00018061194)
(0.0001516064 -2.1324144e-05 9.6966613e-05)
(0.00012829184 -2.8526988e-05 8.0006345e-05)
(-5.5083926e-05 -3.901669e-05 -8.393523e-05)
(0.00012415148 -3.4340289e-05 8.1014669e-05)
(0.00013792563 -1.7097659e-06 0.00018058891)
(0.0001670445 2.9373802e-06 0.00016326912)
(0.00013267514 -7.5047104e-07 0.00016520017)
(0.00015547951 6.368038e-06 0.00016705082)
(0.00012372618 -7.6610814e-06 0.00016297032)
(0.00014325183 3.4705714e-06 0.00018140399)
(0.00017007794 -4.5665763e-06 0.00021826114)
(0.00015222513 -5.1212157e-06 0.00020204736)
(0.00017655339 2.9436261e-06 0.00022491633)
(0.00013352039 -6.7225333e-06 0.00018251233)
(0.00017246923 -8.1541196e-07 0.00022694798)
(0.0001625225 -2.2167899e-06 0.00021175916)
(0.0001910897 -2.4567846e-06 0.0002525055)
(0.0001594637 -1.1859291e-05 0.00011519447)
(0.00014900673 -3.2598252e-06 0.00020006881)
(0.00014822046 -4.8035622e-06 0.00020073143)
(0.0001865083 -2.3090548e-06 0.00024929702)
(0.00017723049 -9.6860807e-06 0.00024465919)
(0.00017987635 2.2267319e-06 0.00023866792)
(0.00017227922 -5.7203754e-06 0.00024172953)
(0.00013583308 -6.3654465e-06 0.00018817829)
(0.00016200538 2.2211882e-05 0.00019570283)
(0.00013176741 -3.4840068e-06 0.00018655367)
(0.00010310828 -3.8077073e-06 0.00013314946)
(0.00017293365 -7.4790265e-06 0.00026789666)
(0.00011075705 6.1895579e-07 0.00014335548)
(0.00015062211 -3.5684563e-06 0.0002044719)
(0.00010086682 -6.8929886e-07 0.00015165808)
(0.0002246584 -2.9660038e-05 0.00022404967)
(0.00012185638 -1.6235269e-05 9.7903248e-05)
(0.00010930452 -1.1415307e-05 9.9713184e-05)
(0.00013255704 -2.1158552e-06 0.00019229021)
(0.00017341638 -1.247286e-05 0.00024082147)
(0.00011751899 -4.8967454e-06 0.0001771722)
(0.00015851242 -6.3282462e-06 0.00022607265)
(5.6101143e-05 2.424461e-06 0.00010851533)
(0.00017066766 -9.1778268e-06 0.00023669743)
(5.1715701e-05 3.5663926e-07 9.8658561e-05)
(0.0001980992 -2.1488373e-05 0.00015788018)
(0.00011252707 -9.883071e-06 0.00016301308)
(0.00019946906 -3.1046921e-05 0.00020347672)
(0.00015023819 -1.8474674e-05 0.00022638148)
(0.0001197134 -7.7907772e-06 0.00019422982)
(0.00013555734 -3.986633e-06 0.00018766902)
(0.0001553354 -2.1059012e-05 0.00011402842)
(5.5979636e-05 -4.3642481e-06 0.00010135505)
(0.00014718266 -1.3494602e-05 0.00022285216)
(0.00012129287 -6.3135999e-06 0.00020262734)
(0.00010230529 -3.6572216e-06 0.00017812294)
(0.00010202831 -7.2791053e-06 0.00017956262)
(0.00013057781 -2.9569586e-06 0.00020358956)
(9.4613262e-05 -6.4553059e-06 0.00014150801)
(0.00011112508 -8.5634738e-06 0.00018871668)
(9.256103e-05 -4.2248971e-06 0.00014188485)
(0.00016594301 -7.1142712e-06 0.00025660165)
(7.7569861e-05 -1.9793681e-06 0.00015046601)
(0.0001235306 2.4733418e-06 0.0001647231)
(6.9802482e-05 2.7987061e-07 0.00013387764)
(4.8415351e-05 1.6589046e-06 0.00011994613)
(0.00010877985 -4.0024734e-06 0.000173999)
(0.0001504475 -9.0840407e-06 0.0001997407)
(0.00014795852 -1.3604838e-05 0.00017748906)
(5.3986799e-05 -5.9991827e-06 0.0001201319)
(0.00018475555 -5.6258395e-06 0.00029280808)
(0.00017819733 -7.4848409e-06 0.00028296277)
(0.00016290202 2.6556829e-06 0.00019327026)
(6.3697027e-05 -2.0088362e-06 0.00010835531)
(2.6488194e-05 -3.9122e-06 0.00010003477)
(3.9865023e-05 -2.3324782e-06 9.8050777e-05)
(0.00016203289 -1.1741066e-05 0.00023662445)
(0.00011341622 -1.6278784e-05 9.1970916e-05)
(9.5301508e-05 -1.0739318e-05 0.00015853679)
(0.00020329848 -1.1077777e-05 0.00034688552)
(0.00016346563 -7.6379274e-06 0.00020643069)
(0.00010221635 -8.447202e-06 9.2620141e-05)
(0.00018664473 -1.3524531e-05 0.00024926127)
(7.6933812e-05 -1.0869631e-05 0.00016348649)
(5.350562e-05 -1.955739e-06 0.00013586588)
(0.00012760026 -2.4199064e-05 0.00019826485)
(0.0001791994 -1.334229e-05 0.00021926071)
(1.1082479e-05 -1.0977568e-06 6.9585576e-05)
(0.00015214754 -1.5572116e-05 0.00020344345)
(0.00017310747 -8.9482261e-06 0.00020944466)
(-5.0606988e-05 -4.2895604e-06 -7.446993e-05)
(6.8954587e-05 -1.4273161e-05 0.00015909466)
(-5.1426021e-05 -1.9458925e-05 -8.402525e-05)
(0.00014561022 -1.1226311e-05 0.00019134838)
(0.00012495013 -1.7272912e-05 0.00019492945)
(2.5764045e-05 -6.2002964e-06 7.0376864e-05)
(5.2277325e-05 -9.0623751e-06 9.6869061e-05)
(0.00017449618 -6.8077957e-06 0.00027713754)
(4.1560551e-05 -6.8541993e-06 7.9597909e-05)
(-4.1515451e-05 1.9784839e-05 -6.115625e-05)
(0.00016676047 -9.7132146e-06 0.00026794782)
(0.00019697526 -1.1596308e-05 0.00032294078)
(0.00017991814 -4.6681424e-06 0.00028744302)
(-4.6213091e-05 -3.4927728e-05 -8.1891831e-05)
(0.00018375682 4.0219061e-05 0.00022243988)
(0.00021521969 -4.56759e-05 0.00025418627)
(0.0001914213 -4.5596117e-05 0.00023557641)
(0.00021393805 -4.5917298e-05 0.00025291923)
(0.00021384952 -3.2263708e-05 0.00026177531)
(0.00020977489 -4.159274e-05 0.00023629672)
(0.00021390333 -3.4451791e-05 0.00026352664)
(0.000207439 -3.6162963e-05 0.0002337724)
(0.00020919175 -3.5761422e-05 0.00023183017)
(0.00018686499 -3.9745709e-05 0.00024818915)
(0.00019452419 -3.1857654e-05 0.00022854594)
(0.00019514002 -2.6769313e-05 0.0002262442)
(0.00019406292 -2.818284e-05 0.00021682162)
(0.00018404072 -3.0300259e-05 0.00019926888)
(0.00018929584 -2.486706e-05 0.00021794468)
(0.00019399021 -2.6928684e-05 0.00021625442)
(0.00021520719 -4.7891726e-05 0.00023447763)
(0.00020483302 -1.1971684e-05 0.00023213109)
(-3.3741733e-06 4.4698521e-06 -5.2744657e-06)
(0.00019753908 -2.0810918e-05 0.00021492468)
(0.0001870693 -1.6804343e-05 0.00021155199)
(0.00021387955 -3.0991946e-05 0.00022616141)
(0.00020515542 -8.3533709e-06 0.00023327324)
(2.904467e-05 1.8390543e-06 6.6226337e-05)
(0.00016161949 1.0630705e-05 0.00019066432)
(-3.9461039e-05 -3.2375254e-06 -6.7990942e-05)
(-4.1067851e-05 4.0423499e-06 -5.2301684e-05)
(-4.3306724e-05 -2.0646453e-05 -7.8206426e-05)
(-5.0568735e-05 -1.3046813e-05 -7.6346904e-05)
(-4.9396179e-05 -2.7514225e-05 -7.5057402e-05)
(-4.3884363e-05 -1.4272587e-05 -6.9061079e-05)
(-3.1791506e-05 5.242405e-06 -5.4013945e-05)
(0.00019203599 -8.8710364e-06 0.00030598403)
(-3.6977607e-05 -3.3412068e-06 -5.3705395e-05)
(-4.2491335e-05 -2.8390763e-05 -7.0501476e-05)
(-4.9652164e-05 -2.1415064e-05 -6.9103065e-05)
(0.00020298046 -7.7285809e-06 0.00032105714)
(0.00017959285 -6.7281781e-06 0.00028915817)
(-3.8007223e-05 1.855623e-05 -6.1695465e-05)
(-4.6163768e-05 3.377814e-06 -5.7309044e-05)
(-4.9787597e-05 -3.3554607e-05 -6.6092505e-05)
(-4.0821619e-05 -2.1225993e-05 -6.3333631e-05)
(-3.4631438e-05 -1.1876218e-05 -4.8918165e-05)
(-3.2129044e-05 1.4250709e-05 -6.4861347e-05)
(0.00017612728 -7.7962139e-06 0.00028514674)
(-5.4428171e-05 -3.3439418e-05 -7.5728267e-05)
(-4.1989428e-05 -5.4897045e-06 -5.2857461e-05)