/*--------------------------------*- C++ -*----------------------------------*\
  =========                 |
  \\      /  F ield         | OpenFOAM: The Open Source CFD Toolbox
   \\    /   O peration     | Website:  https://openfoam.org
    \\  /    A nd           | Version:  11
     \\/     M anipulation  |
\*---------------------------------------------------------------------------*/
FoamFile
{
    format      ascii;
    class       volVectorField;
    location    "10000";
    object      wallShearStress;
}
// * * * * * * * * * * * * * * * * * * * * * * * * * * * * * * * * * * * * * //

dimensions      [0 2 -2 0 0 0 0];

internalField   uniform (0 0 0);

boundaryField
{
    wall-fluid_domain
    {
        type            calculated;
        value           nonuniform List<vector> 
50990
(
(0.00015835376 -2.5320071e-05 7.8429557e-06)
(0.00015767667 -3.065324e-05 8.7777583e-06)
(9.220553e-05 -2.69598e-05 -7.2735309e-07)
(0.00014829223 -2.6873938e-06 1.5531045e-05)
(0.00016703032 -2.4418121e-05 5.0224281e-06)
(0.00019411363 1.1890896e-06 1.8597003e-05)
(0.00015104846 -2.6983171e-05 8.8863239e-06)
(0.00014497858 -1.6072046e-05 8.7806209e-06)
(0.0001761547 -7.0983415e-06 2.0096037e-05)
(0.00020473192 -1.9517212e-05 1.7569925e-05)
(0.0001403831 -1.752904e-05 7.0839398e-06)
(0.00019357389 -1.8380497e-05 1.5155089e-05)
(9.4413258e-05 -3.2692243e-05 -5.4720739e-06)
(0.00016303432 -2.9335081e-05 5.4408495e-06)
(0.00022798367 -1.2114987e-05 3.8169288e-05)
(0.00023972529 1.0220507e-06 2.7461356e-05)
(0.00020005445 -1.049065e-05 1.8442415e-05)
(0.00016543082 -2.6032935e-05 2.8693962e-06)
(0.00020479578 3.7204313e-06 2.1937264e-05)
(0.00018313718 7.2715015e-06 2.0720684e-05)
(0.00014317966 2.4760759e-05 -1.6629345e-05)
(0.00019443595 2.0001535e-06 2.0771794e-05)
(0.00020820865 -1.1062158e-05 2.4054902e-05)
(0.00020251529 -5.7762345e-06 1.9120117e-05)
(0.00015448822 -3.0074366e-05 -6.5298153e-07)
(0.00020763906 1.0614594e-05 2.6378215e-05)
(0.00013577688 2.9937707e-05 -1.150408e-05)
(0.00018934397 4.3775976e-06 1.9881942e-05)
(0.00014685785 -4.5804723e-05 -8.5855248e-07)
(0.00014378714 4.344323e-05 -1.728236e-05)
(0.00022233831 -6.98886e-06 2.9989922e-05)
(0.00022720683 2.3553853e-05 4.4337544e-05)
(0.00020380009 -7.8967762e-07 2.1445875e-05)
(0.00022477107 1.3926396e-05 3.129913e-05)
(-2.2290026e-05 -9.3952247e-06 -1.0166336e-05)
(0.00022628075 1.9968145e-05 3.7144193e-05)
(0.00019000338 6.3330018e-06 2.0904842e-05)
(0.00023393896 -7.1765996e-06 2.4924791e-05)
(0.00019605991 9.3947467e-06 2.8858809e-05)
(0.00024127864 2.8353992e-05 5.3904356e-05)
(0.00019595751 3.0722292e-06 2.3441562e-05)
(0.00023757344 -2.3155062e-05 4.5372028e-05)
(0.00013815839 -5.7491967e-05 2.2135096e-06)
(9.8881104e-05 -3.9017605e-05 -2.0440912e-06)
(0.00017742105 4.110309e-05 1.4265498e-05)
(0.00021721537 -1.0498004e-05 3.1787138e-05)
(0.00019344857 1.6860008e-05 3.9125567e-05)
(0.00022152613 -1.4750578e-05 3.7382729e-05)
(0.00018013326 -4.3969464e-06 2.1456098e-05)
(0.00018613801 -5.690754e-06 2.737423e-05)
(0.00012543164 -3.521703e-05 3.383626e-06)
(0.00014756974 -4.0823079e-05 6.5764796e-06)
(6.3164506e-06 -1.5891773e-05 2.2218063e-06)
(-2.110318e-06 -1.5485875e-05 2.9108523e-06)
(0.00013945085 -3.1684908e-05 4.4271061e-06)
(-2.0043853e-05 -1.2058402e-05 -8.312622e-06)
(0.00020594974 -1.5480253e-05 3.6041249e-05)
(0.00015793415 -3.0402647e-05 6.7569699e-06)
(0.0001303009 -4.5435488e-05 4.1968591e-06)
(0.000153297 2.8027522e-05 -1.7497358e-05)
(0.00013110443 -4.060954e-05 3.3968335e-06)
(0.00013245513 -4.8514572e-05 -1.1105472e-06)
(0.00012240715 -4.2685273e-05 2.7645583e-06)
(0.00012684018 -3.441491e-05 1.1157367e-06)
(0.00017133854 -2.703744e-05 1.0374925e-05)
(8.8408107e-05 -4.1420575e-05 -3.8786883e-06)
(0.00018154297 -2.3202013e-05 1.4452756e-05)
(9.443856e-05 -3.6147442e-05 6.4720561e-06)
(0.00023301747 -2.7159293e-05 0.00013267675)
(0.00014348137 -2.5296683e-05 6.4884207e-06)
(0.00012317927 -4.9130566e-05 7.1508874e-06)
(0.0001064139 -4.6093798e-05 2.0284268e-06)
(8.013487e-05 -3.8921548e-05 1.5965291e-06)
(0.00016868489 -1.330688e-05 1.7110019e-05)
(8.8387653e-05 -3.5824253e-05 3.3838911e-06)
(0.00012751455 -4.1884708e-05 3.5938512e-06)
(9.311366e-05 -4.3470295e-05 4.6804246e-06)
(7.4683113e-05 -3.8201244e-05 -1.0394225e-06)
(8.6502606e-05 -4.3036543e-05 3.1173822e-06)
(9.5953724e-05 -4.2505377e-05 8.1421428e-06)
(0.00011852459 -4.2410702e-05 4.8867638e-06)
(7.6528554e-05 -4.2502497e-05 3.9436951e-06)
(7.8385552e-05 -4.2775568e-05 6.2898091e-06)
(0.00012206941 -3.4730532e-05 9.1142571e-07)
(8.8149069e-05 -4.2501836e-05 4.9398106e-06)
(9.7104015e-05 -4.5993133e-05 1.0975283e-05)
(0.00010440836 -3.6654069e-05 5.1183077e-06)
(0.00012615476 -4.0428516e-05 3.0722881e-06)
(7.5921912e-05 -4.0467279e-05 9.301048e-06)
(7.3137598e-05 -4.5137672e-05 7.7108906e-06)
(9.3050627e-05 -4.0044355e-05 8.0941182e-06)
(7.6245222e-05 -3.9299843e-05 8.0339236e-06)
(7.0031681e-05 -4.287147e-05 9.2455628e-06)
(7.0100149e-05 -3.9605609e-05 5.5786361e-06)
(0.00023592129 -2.8921236e-05 0.00013064714)
(0.00021939738 -2.4177117e-05 0.00012149989)
(0.00016234909 -2.1236949e-05 9.4825345e-05)
(0.00015436614 -2.9437294e-05 6.6845182e-06)
(7.1721821e-05 -3.9724163e-05 7.6445492e-07)
(0.00017472194 -2.1038136e-05 1.1278279e-05)
(0.00013646018 -2.5180634e-05 6.6973287e-06)
(0.00015759779 -1.2454855e-05 1.4268042e-05)
(5.8545376e-05 -3.7126085e-05 4.4201473e-06)
(0.00013304171 -2.8271788e-05 6.1172051e-06)
(0.00014443629 3.4630519e-05 -2.1413004e-05)
(5.4240488e-05 -3.5967548e-05 4.0465345e-06)
(5.1661149e-05 -3.6765146e-05 3.2394348e-06)
(4.677877e-05 -3.8752311e-05 7.6483583e-06)
(4.512307e-05 -3.133873e-05 7.398779e-06)
(0.00016553112 -6.5451411e-06 1.7938598e-05)
(0.00014196724 -2.2366978e-05 8.9649114e-06)
(0.00016452545 -2.0278239e-05 1.3159013e-05)
(0.00017509855 -2.1397692e-05 1.6625191e-05)
(0.00014240699 -3.2226848e-05 9.2902434e-06)
(0.00014049877 -2.8805977e-05 9.5248648e-06)
(0.00017135767 -1.4855416e-05 1.7323849e-05)
(0.00014886631 -2.2880411e-05 1.4726426e-05)
(0.00013639212 -2.5083733e-05 9.2597612e-06)
(0.00015641361 -1.5295168e-05 1.7512431e-05)
(0.00015055919 -1.4809436e-05 1.4167306e-05)
(0.00014508497 -2.1469872e-05 1.0748475e-05)
(0.00013855005 -3.1120485e-05 4.4280336e-06)
(0.0001044902 -2.08076e-05 8.3959255e-06)
(0.00012354601 -3.1696875e-05 7.1725202e-06)
(0.0001580709 -3.555424e-05 1.371793e-05)
(0.00015317968 -2.7014097e-05 1.2873829e-05)
(0.00015066808 -1.7492491e-05 1.5066179e-05)
(0.00017332547 -1.5890397e-05 2.0867666e-05)
(0.00016290231 -3.1667053e-05 1.347578e-05)
(0.00015780832 -2.6389223e-05 1.5654136e-05)
(0.00017442352 -1.0307211e-05 1.8716609e-05)
(0.00015327183 -1.2900544e-05 1.7077859e-05)
(0.00017554921 -8.8042117e-06 2.1327385e-05)
(0.00016831222 -1.1717626e-05 2.0450778e-05)
(0.00019788533 7.5032739e-06 2.4860725e-05)
(0.00016340638 -5.9425537e-06 2.0230329e-05)
(0.0001545019 -2.3558627e-05 1.5037745e-05)
(0.00017721143 -5.3628662e-06 2.1033866e-05)
(0.00017262703 -2.0619075e-05 1.9970275e-05)
(0.00016070713 -1.8914615e-05 1.7586747e-05)
(0.00012564881 -2.6197321e-05 1.1639034e-05)
(0.00017473847 -1.0132626e-05 2.366688e-05)
(0.00017707856 -1.4219931e-05 2.1863041e-05)
(0.0001763147 -2.2030518e-06 2.4396927e-05)
(0.00016618834 -6.3247946e-06 2.486604e-05)
(0.00015464878 -3.1734013e-05 2.0352611e-05)
(0.0001996507 1.6976487e-05 3.5225928e-05)
(0.00016770717 2.7754674e-05 1.0522728e-05)
(0.00012551297 -1.5159434e-05 1.5698453e-05)
(0.00018673844 2.0775767e-05 1.6136263e-05)
(0.0001770069 -1.6749406e-05 2.556897e-05)
(0.00017835449 -5.5316581e-06 2.6471402e-05)
(0.00014868147 2.6903744e-05 8.8128826e-06)
(0.00016866538 -1.7914684e-05 2.4580063e-05)
(0.00018364381 -2.735822e-06 2.9301566e-05)
(0.00015500955 1.018085e-05 1.4605982e-05)
(0.00015325556 -8.6530055e-06 2.2902585e-05)
(0.00019317102 -5.2936012e-06 3.0342248e-05)
(0.0001609119 -6.358817e-06 2.4867234e-05)
(0.00018593888 1.7151577e-07 2.6946502e-05)
(0.00014740939 -1.9557323e-05 2.2645505e-05)
(0.00017227612 -1.3052012e-05 3.0701142e-05)
(0.00017107841 -2.0020745e-05 2.526906e-05)
(0.00019267795 -1.9929802e-06 3.3147492e-05)
(0.00016839011 -5.172553e-06 2.9298704e-05)
(0.00020480062 -2.1282394e-05 3.9113277e-05)
(0.00020063076 -1.3636282e-05 3.6511471e-05)
(0.00019702931 3.6321267e-06 3.2972638e-05)
(0.00020175203 -4.9541198e-06 3.3916617e-05)
(0.00019599496 -3.4167781e-06 3.44415e-05)
(0.00018947789 4.5707147e-06 3.5008799e-05)
(0.00023001716 1.8630655e-05 5.1288544e-05)
(0.00020001121 -1.7265856e-05 3.7010812e-05)
(0.00020532434 -6.9934211e-06 2.5480894e-05)
(0.00017755363 2.8919724e-06 3.4658777e-05)
(0.00019835004 -1.2485226e-05 3.7758752e-05)
(0.00023686454 -4.2034608e-05 4.9902764e-05)
(0.00016302253 -1.3709527e-05 3.1157352e-05)
(0.00019312151 -1.0213509e-05 3.7684971e-05)
(0.00017758536 2.1479347e-06 3.3338889e-05)
(0.00019600479 -3.9930927e-06 3.8809405e-05)
(0.00015924665 -1.0973777e-05 2.992587e-05)
(0.0001838738 8.3376068e-06 3.7771049e-05)
(0.00018495207 -1.7967859e-05 3.1504379e-05)
(0.00018315043 -1.066917e-05 3.6481739e-05)
(0.00017310297 -1.1516958e-05 3.3455696e-05)
(0.00020344154 1.0612926e-05 4.1801593e-05)
(0.0001786646 3.3323262e-06 3.7249775e-05)
(0.00017987692 -7.827264e-06 3.598524e-05)
(0.00022026274 -3.6739137e-05 4.446011e-05)
(0.00017976453 7.8505629e-07 3.7130173e-05)
(0.00018766834 5.8424318e-06 4.3338324e-05)
(0.00018151457 -1.6798321e-05 3.4211561e-05)
(0.00018566354 -3.3729184e-06 3.9101819e-05)
(0.00017177468 3.8161736e-05 1.4427155e-05)
(0.00017306143 1.1029707e-05 3.9971206e-05)
(0.00017208988 -1.2281505e-05 3.6484362e-05)
(0.00017860755 -1.3313682e-05 3.3636448e-05)
(0.00022398635 1.1929513e-05 5.4823193e-05)
(0.00015570716 -1.5336814e-07 2.3249556e-05)
(0.00018378872 6.9763075e-07 4.1383635e-05)
(0.00016712676 -7.8407383e-06 3.4338685e-05)
(0.00019509031 -4.9234307e-06 4.2549457e-05)
(0.00021135562 6.1498305e-06 4.7369099e-05)
(0.00017970103 1.3203248e-06 4.0773343e-05)
(0.00017572658 -1.7028767e-05 3.1964246e-05)
(0.00018985654 -3.658567e-06 2.6778525e-05)
(0.00015377099 -2.6201118e-05 3.1051219e-05)
(0.00021970471 5.4392217e-06 5.2307161e-05)
(0.00020661194 5.7981295e-06 3.629769e-05)
(0.00016119149 -9.0443165e-06 3.4069854e-05)
(0.00017207536 -1.0493188e-05 3.3357903e-05)
(0.00023038359 1.4700431e-05 5.8272991e-05)
(0.00017473235 9.318569e-06 4.2707148e-05)
(0.00017637796 -1.3551149e-05 3.7213271e-05)
(0.00019892892 1.569533e-06 2.3430857e-05)
(0.00014539065 -1.3819279e-05 2.8361622e-05)
(0.00014872317 -1.8904618e-05 2.6998614e-05)
(0.00020867552 1.367466e-05 4.1453672e-05)
(0.00023448049 9.538137e-06 5.8476327e-05)
(0.0001471286 -1.6667808e-05 2.8475874e-05)
(0.00014638664 -5.5836284e-06 3.0986824e-05)
(0.00014166602 -1.0932336e-05 2.9810272e-05)
(0.00015435273 -1.0531267e-05 3.2795658e-05)
(0.00014971333 -2.2890248e-06 3.408678e-05)
(0.00013578554 -1.7878921e-05 2.57734e-05)
(0.0001244145 -1.3296972e-05 2.6041494e-05)
(0.00012253093 -1.4340602e-05 2.2754662e-05)
(0.00021178025 9.682908e-06 3.6166081e-05)
(0.00020598714 1.6114004e-05 5.0928559e-05)
(0.00019824806 9.2081067e-06 3.5320737e-05)
(0.00013743321 -1.1834266e-05 2.7434185e-05)
(0.0001523971 -7.5691674e-06 3.3608638e-05)
(0.00019935092 4.8620533e-06 3.3264423e-05)
(0.00012469705 -1.1568514e-05 2.4465887e-05)
(0.00014175451 -1.0282555e-05 2.9644012e-05)
(0.00016815097 -1.8650091e-05 2.6654248e-05)
(0.00021468121 -3.9947333e-05 5.0551266e-05)
(0.00014937782 1.4385398e-05 3.4416271e-05)
(0.0001521955 -6.0945378e-06 3.2388603e-05)
(0.00019134714 -2.6857918e-05 3.484617e-05)
(0.00012481562 -7.521904e-06 2.4288511e-05)
(0.00013128431 -6.9848758e-06 2.7957998e-05)
(0.00021477724 1.1188226e-05 5.7268493e-05)
(0.00014598622 -2.0747758e-05 2.0828286e-05)
(0.00016240342 -7.3705174e-06 3.757541e-05)
(0.00021733235 1.7469705e-05 5.7241036e-05)
(0.0002049261 2.6935429e-06 4.820011e-05)
(0.00018650715 -2.4286855e-05 3.1828174e-05)
(0.00021555686 8.2508732e-06 5.3423276e-05)
(0.00021143284 -4.7911968e-07 4.9615896e-05)
(0.00020619322 1.5644115e-05 5.4322691e-05)
(0.00019134326 -5.4459444e-07 4.3495302e-05)
(0.00018991942 -5.8526238e-06 4.1429285e-05)
(0.00020336751 1.8638047e-05 4.3324759e-05)
(0.00020378573 2.0753629e-05 4.2991409e-05)
(0.00020393837 1.1709989e-05 4.0895188e-05)
(0.00022262823 1.3692679e-05 5.6941659e-05)
(0.00020741093 1.5183805e-05 5.7131082e-05)
(0.00020689842 1.7208382e-05 4.9417273e-05)
(0.00020359915 1.45538e-05 5.7141958e-05)
(0.00018530199 5.3988173e-07 4.2975283e-05)
(0.0001922746 1.9223741e-05 4.7708255e-05)
(0.00021467106 2.1881619e-05 5.4887636e-05)
(0.00021203146 1.2995838e-05 5.6590142e-05)
(0.00015901356 1.9263142e-06 2.3292337e-05)
(0.00023582861 2.1212704e-05 6.6374869e-05)
(0.00022260892 2.3313056e-05 5.1648439e-05)
(0.00014750239 -1.9392738e-05 2.8238946e-05)
(0.00021063742 -4.6820167e-05 8.5973221e-05)
(0.0001484752 -2.566989e-05 2.9100852e-05)
(0.00023466077 2.7788828e-05 7.0767585e-05)
(0.00020068551 5.9003389e-06 4.9270294e-05)
(0.00016846422 2.3568025e-05 1.1356857e-05)
(0.00017080399 3.3570155e-05 1.2133302e-05)
(0.00020624365 8.369045e-06 5.0020549e-05)
(0.00021544422 2.3096354e-05 6.5854045e-05)
(0.00020239333 4.4871317e-05 8.7981853e-05)
(0.00019976824 6.3276481e-07 4.8539973e-05)
(0.0002411809 2.5680315e-05 7.7081712e-05)
(0.00021115017 2.7486546e-05 7.0238473e-05)
(0.00017967045 2.2018866e-05 1.468306e-05)
(0.00014127445 -1.8914723e-05 2.4843178e-05)
(0.00017114341 4.0036877e-05 1.1604975e-05)
(0.0002177827 2.6767425e-05 7.034237e-05)
(0.00019175903 2.4313825e-05 6.6299753e-05)
(0.00022767078 1.4301407e-05 6.3864897e-05)
(0.00010481106 -1.4649819e-05 2.062962e-05)
(0.00011319617 -1.844706e-05 2.1963878e-05)
(0.00022574374 2.2905791e-05 7.5661634e-05)
(0.00020525261 2.0092941e-05 6.4549181e-05)
(0.00019754552 1.6329899e-05 3.980946e-05)
(0.00017868755 -8.2296404e-06 4.1694586e-05)
(0.00015172432 -2.291026e-05 2.3801276e-05)
(0.00020447739 2.6050774e-06 3.4348562e-05)
(0.00020236973 1.7186189e-05 4.6718532e-05)
(0.00022044469 2.6824629e-05 6.1122524e-05)
(0.00022163303 1.9804437e-05 6.3610377e-05)
(0.00017071663 -2.8409257e-06 3.979307e-05)
(0.00020843777 1.4268329e-05 5.8114592e-05)
(0.00022696395 2.5893127e-05 6.6883955e-05)
(0.00019893256 2.0402763e-05 5.2667373e-05)
(0.00015292121 -2.8259083e-05 2.5689002e-05)
(0.00014485135 -8.3150054e-07 3.3523502e-05)
(0.00023389345 2.5563947e-05 7.2211025e-05)
(0.00012765525 -1.1156014e-05 2.465642e-05)
(0.0002178684 2.5929948e-05 7.5262924e-05)
(0.00021607917 1.2023465e-05 5.822211e-05)
(0.0002112859 1.1059031e-05 5.5721698e-05)
(0.00020312205 1.9347617e-05 5.8011314e-05)
(0.00020279938 6.4026354e-06 5.4055057e-05)
(0.00020380031 1.3251652e-05 3.7078167e-05)
(0.00013072988 -8.3730426e-06 2.9598017e-05)
(0.00021608634 1.592102e-05 6.2410144e-05)
(0.00018967077 -8.7140885e-07 4.6531979e-05)
(0.00015824784 -1.9170333e-06 2.241534e-05)
(0.0001929692 2.4699886e-05 7.055309e-05)
(0.00022428876 2.0665188e-05 6.0379197e-05)
(0.00018183436 1.0698573e-05 4.9270541e-05)
(0.00015611828 5.9330448e-06 1.5268273e-05)
(0.00018171163 1.3110433e-05 5.2830668e-05)
(0.00022466058 2.6871678e-05 7.8370366e-05)
(0.00020533131 2.3245005e-05 6.8275954e-05)
(0.00020986309 2.6805958e-05 6.5135927e-05)
(0.00022141313 2.9855732e-05 8.0891375e-05)
(0.0001538093 -2.5275679e-05 2.73577e-05)
(0.00015158818 -1.0284928e-05 3.457124e-05)
(0.00016616076 -3.5356891e-05 3.4578291e-05)
(0.00020467824 2.7012386e-05 7.8788773e-05)
(0.00023251577 2.3852539e-05 8.0666574e-05)
(0.00020519182 2.2151387e-05 7.5604168e-05)
(0.00010846343 -1.48907e-05 2.0421107e-05)
(0.00019947795 3.3492128e-06 4.9805892e-05)
(0.00023825168 6.1007869e-06 6.2146633e-05)
(0.00012263241 -1.9923791e-05 2.2867127e-05)
(0.000147783 3.0388064e-05 -1.6553681e-05)
(0.00019367924 1.3593084e-05 5.9311847e-05)
(0.00017146747 2.9522468e-05 -2.1815977e-05)
(0.00012812932 -1.3273213e-05 2.7325578e-05)
(0.00020349634 2.1397534e-05 4.7402176e-05)
(0.00012510964 -3.2309185e-06 2.7101401e-05)
(0.0002167215 2.4781292e-05 5.8174308e-05)
(0.00017544337 8.8785672e-07 4.315416e-05)
(0.00018271876 -1.7426034e-06 4.2841769e-05)
(0.00014348355 -3.9231938e-06 3.3320728e-05)
(0.00015301514 -2.7587608e-06 3.8067559e-05)
(0.00015810745 -3.3813068e-05 3.1411996e-05)
(0.00020703338 2.4047028e-05 5.2779184e-05)
(0.00016515607 -2.2963873e-06 4.0539504e-05)
(0.00022048985 -5.1531956e-05 7.3506726e-05)
(0.00014738845 2.4787344e-06 3.7712005e-05)
(0.00019778726 4.9477935e-05 7.6321623e-05)
(0.0001556418 5.2256094e-06 2.4090256e-05)
(0.00019050504 -3.0171683e-08 2.3620855e-05)
(9.9411838e-05 -1.4171236e-05 1.6908351e-05)
(0.00012100446 -6.8957539e-06 2.3329352e-05)
(0.00011757462 -1.7876898e-05 2.0638786e-05)
(0.00011311644 -9.8109987e-06 1.8891255e-05)
(0.000235125 1.3968513e-05 6.4225198e-05)
(0.00023960232 1.1643898e-05 7.0762758e-05)
(0.00012403203 -5.3616071e-06 2.5126976e-05)
(0.00022613778 3.0501165e-05 6.0118293e-05)
(0.00012673862 1.5944867e-06 2.9674077e-05)
(0.00018341089 -6.290061e-06 2.6270543e-05)
(0.00018111707 3.1735938e-06 4.6457504e-05)
(0.00023272631 -1.9138268e-05 4.7222188e-05)
(0.00018767374 7.3493694e-06 5.0063034e-05)
(0.00012893486 2.1032963e-06 3.4294198e-05)
(0.0001920691 -1.4469634e-05 3.0627741e-05)
(0.000156128 4.3033674e-06 4.0928004e-05)
(0.00014272992 -4.2941376e-06 3.2037112e-05)
(0.00018398104 8.4645157e-06 5.5228326e-05)
(0.0001283848 -6.9830835e-06 2.9092193e-05)
(0.00017359152 2.6762093e-06 4.589484e-05)
(0.00010471095 -1.1693927e-05 1.6492259e-05)
(0.00010353493 -1.3059821e-05 1.7318759e-05)
(9.5862539e-05 -1.8178678e-05 1.8042829e-05)
(0.00015142681 -7.5276352e-06 3.5608009e-05)
(0.00018670891 7.8470585e-06 5.0590089e-05)
(0.00019559916 7.9404487e-07 5.0459469e-05)
(2.4784383e-05 -2.5418076e-05 -5.6710246e-06)
(0.00018445098 8.0285134e-06 5.2079326e-05)
(0.00015783147 3.8274611e-06 4.4296476e-05)
(0.00018680807 8.8660139e-06 5.4991132e-05)
(0.00016474031 9.8817402e-06 4.7124649e-05)
(0.00019518499 6.5269349e-06 5.6374332e-05)
(0.00017977442 1.0931175e-05 5.6287819e-05)
(0.00018774998 1.0515325e-05 5.6422979e-05)
(0.00016506291 1.0662378e-05 5.0628056e-05)
(0.00014319911 3.2709496e-05 -1.2570536e-05)
(0.00013946355 2.9590549e-05 -1.2914529e-05)
(0.0002310833 -3.779809e-05 5.6086318e-05)
(0.00014186104 -3.3766778e-05 4.2016681e-06)
(0.00013407527 2.0923498e-05 9.397768e-06)
(0.00014905244 -3.4328173e-05 2.3475012e-06)
(0.00016340121 2.11442e-05 1.1643792e-05)
(0.0001753376 1.8126161e-05 1.3453019e-05)
(0.00013742534 2.8307918e-05 9.9264116e-06)
(0.00013130206 2.3599034e-05 7.9045269e-06)
(0.00018056629 2.1874486e-05 1.6756567e-05)
(0.00015084655 2.5780691e-05 1.2184397e-05)
(0.00014343609 3.2588036e-05 1.1054664e-05)
(0.00017504587 1.6731642e-05 1.5055515e-05)
(0.00014275265 2.4066781e-05 1.0397407e-05)
(0.00014934778 1.8255387e-05 1.2397896e-05)
(0.00014146481 4.364301e-05 1.1270126e-05)
(0.00013900243 3.0820773e-05 6.4809925e-06)
(0.00013661887 3.872943e-05 1.011772e-05)
(0.00014380702 3.4511803e-05 8.7726088e-06)
(0.00014868204 3.0142031e-05 1.4572699e-05)
(0.00011685837 1.4946362e-05 1.1255484e-05)
(0.00011768767 -4.6708565e-05 6.4448937e-06)
(0.00016002734 8.8178646e-06 1.577196e-05)
(0.00014489298 2.7839272e-05 1.0649126e-05)
(9.340819e-05 -4.205737e-05 7.5858958e-06)
(0.00011333022 1.700155e-05 9.0036494e-06)
(0.00013078308 -3.7434358e-05 3.7347983e-06)
(0.00017860741 1.0311485e-05 1.662593e-05)
(0.00015012902 1.3511106e-05 1.643384e-05)
(0.00014959938 1.3108966e-05 1.7915774e-05)
(0.00016058342 5.7681065e-06 1.8669488e-05)
(0.00014073097 2.451289e-05 1.4652878e-05)
(0.00017675107 6.9137207e-06 2.1124308e-05)
(0.00014275538 8.1758476e-06 1.7416113e-05)
(0.00014775462 1.5237946e-05 1.7158911e-05)
(0.00013084026 1.9540776e-05 1.6649167e-05)
(0.00013145109 3.0001987e-05 1.0983169e-05)
(0.0001557271 1.2908013e-05 2.1661404e-05)
(0.00015308188 9.368065e-06 1.9607198e-05)
(0.00013800049 2.0021487e-06 1.8435951e-05)
(0.00017076352 8.5752869e-06 2.4429879e-05)
(0.00013215295 2.2184314e-05 1.2406936e-05)
(0.00012898511 1.6560988e-05 1.7369766e-05)
(0.00013352497 8.4974468e-06 1.675626e-05)
(0.00014874806 5.4691552e-06 2.202314e-05)
(0.0001558027 2.2676737e-05 2.1880077e-05)
(0.00016825378 3.5251925e-06 2.5671854e-05)
(0.00019221019 1.2424883e-05 3.1538282e-05)
(0.00015126563 3.7696049e-06 2.4460022e-05)
(0.00020300878 1.1985019e-05 3.5042604e-05)
(-3.6385017e-06 -1.3540531e-05 1.5118402e-06)
(0.00023354875 -3.6165178e-05 0.00012520377)
(0.00022389752 -2.640126e-05 0.00012207008)
(0.00019432364 5.0328991e-07 3.0067608e-05)
(0.00019841063 4.353762e-06 2.3707225e-05)
(0.0001536374 1.673796e-05 2.0567887e-05)
(0.00024269091 -2.0160786e-05 0.00014656921)
(0.00016815065 1.5421985e-05 2.96109e-05)
(0.00015763994 1.4337572e-05 2.5592211e-05)
(0.00019061479 -2.0662102e-06 3.1281492e-05)
(0.00019933956 1.1395782e-05 3.6752436e-05)
(0.00016877335 1.1812193e-05 3.2029287e-05)
(0.00019631129 5.6495396e-06 3.5471636e-05)
(0.00019643935 -7.084108e-08 3.1644308e-05)
(0.00017923604 1.1389294e-06 3.2966347e-05)
(0.00017140673 4.3080075e-06 3.2586289e-05)
(0.00019258576 -8.8984981e-08 3.3350786e-05)
(0.00016499119 1.2080775e-05 3.0661821e-05)
(0.0001876157 -2.6405639e-06 3.3165953e-05)
(0.00015574703 1.4624377e-06 3.0621127e-05)
(0.00017609872 8.5307313e-06 3.6011144e-05)
(0.00018179779 7.1764964e-06 4.0075647e-05)
(0.0001703268 -3.6576913e-07 3.3897108e-05)
(0.00016234363 2.8509647e-06 3.4180056e-05)
(0.00017014259 1.5987537e-05 3.7369818e-05)
(0.00018525315 -9.4611677e-07 3.712686e-05)
(0.00016060882 1.5460126e-05 3.2127754e-05)
(0.00021457783 -2.2354096e-05 0.00012444638)
(0.00019010489 -4.0356044e-06 3.7643763e-05)
(0.00021214383 1.4675039e-05 4.9604006e-05)
(0.0001652917 1.233417e-05 3.7553944e-05)
(0.00018110902 -3.3492873e-06 3.6804392e-05)
(0.00020722116 1.0540555e-05 4.6150232e-05)
(0.00021807642 3.5783255e-05 0.00011860878)
(0.00021089889 -6.8426377e-06 4.3928659e-05)
(0.00018657838 1.9134188e-05 4.2708193e-05)
(0.00021813307 -2.742379e-06 4.4744655e-05)
(0.0001621941 -1.9121278e-06 3.5625093e-05)
(0.00019733817 4.4385813e-06 4.3301322e-05)
(0.00019504056 -8.5841286e-07 4.1763705e-05)
(0.00019772161 -1.380984e-05 4.5754731e-05)
(0.00020109784 8.6310799e-06 4.5887828e-05)
(0.0001929588 -2.3501408e-06 2.4631424e-05)
(0.00019015782 -3.1866308e-06 4.1480343e-05)
(0.00017837078 1.1400623e-05 4.0179412e-05)
(0.00020456755 -9.9691371e-06 4.862046e-05)
(0.00014090643 3.42586e-05 1.1308107e-05)
(0.00018034146 1.1037555e-05 4.1750493e-05)
(0.00019409619 -1.8079509e-06 4.5481801e-05)
(0.00018709111 4.2152118e-06 4.3525593e-05)
(0.00020475162 -3.0643903e-06 3.0678542e-05)
(0.00015044987 1.4360199e-05 3.4485381e-05)
(0.00014637806 1.6390487e-05 3.2313522e-05)
(0.00019739231 -3.163614e-06 3.5920828e-05)
(0.00015979247 8.3950368e-06 3.6285433e-05)
(0.00016539282 2.1105352e-05 3.944255e-05)
(2.204948e-05 -2.9525035e-05 4.0672171e-06)
(0.00016792269 1.2044891e-05 3.7750577e-05)
(0.00018689406 -8.3694769e-06 3.580798e-05)
(0.00015931481 2.0148426e-05 3.6833097e-05)
(0.00019914706 -1.4151776e-05 4.9813797e-05)
(0.00021426026 -1.0057812e-05 4.5432213e-05)
(0.00021236452 -2.4242282e-05 4.3757324e-05)
(9.5488275e-05 -5.0551274e-05 -2.7862367e-06)
(0.00016667649 1.3973268e-05 3.9320898e-05)
(0.00015106621 1.3469791e-05 3.407636e-05)
(0.00015887229 8.2122504e-06 3.5184258e-05)
(0.00021276847 -1.6837393e-05 3.696983e-05)
(0.00017998057 4.1273059e-06 4.2813044e-05)
(0.00014495456 1.8618442e-05 2.9508371e-05)
(0.0001117856 1.7674718e-05 2.8063233e-05)
(0.00021397019 -1.803709e-05 5.129153e-05)
(0.00013832109 1.1506169e-05 2.7050819e-05)
(0.00016811505 -7.3117551e-06 2.8761382e-05)
(0.00013753306 6.2382828e-06 3.084238e-05)
(6.4110448e-05 -4.0405801e-05 -1.1461213e-08)
(0.00011711608 9.5294806e-06 2.54312e-05)
(0.00015396561 1.2277076e-05 3.4007167e-05)
(0.00021161852 -2.6726678e-06 3.7640427e-05)
(0.00021328518 -1.478002e-05 4.5685123e-05)
(0.00019044448 -9.0442449e-06 3.8608142e-05)
(0.00010010058 -1.4412876e-05 1.680842e-05)
(0.00015219424 1.4192948e-05 3.3475816e-05)
(0.00014193119 1.901433e-05 3.0210233e-05)
(0.00022250457 3.1768277e-05 7.9194079e-05)
(0.00014323389 7.3930509e-06 3.031978e-05)
(0.00021895524 2.4470754e-05 6.6079688e-05)
(5.6844646e-05 -4.2219758e-05 5.6512004e-06)
(0.00020705472 -1.5115525e-05 5.3363191e-05)
(0.00015853461 6.0707253e-06 3.6724864e-05)
(0.0001946935 -1.5273168e-05 5.1428481e-05)
(0.00019216344 -8.9364206e-06 4.6029213e-05)
(0.00018954085 -1.439094e-06 4.6825566e-05)
(3.7924655e-05 -3.3475599e-05 6.3433541e-06)
(1.6528265e-05 -2.1985888e-05 3.8994777e-06)
(0.00022631237 -2.3056252e-05 4.7780282e-05)
(0.00018137082 -3.4734972e-06 2.6655444e-05)
(0.00022160001 -2.1407703e-05 5.6418816e-05)
(0.00018669125 2.209911e-06 4.4575078e-05)
(0.00019201039 -1.4145865e-05 3.9275917e-05)
(0.00017089513 -1.0529376e-05 3.2545315e-05)
(0.00015991974 6.1641014e-06 3.7685005e-05)
(0.00021716003 -1.6643429e-05 4.88829e-05)
(0.00019217029 -1.8539378e-05 4.1744063e-05)
(0.00022519661 -1.6573049e-05 5.6482703e-05)
(0.00013674535 -3.3206537e-05 7.7236987e-06)
(0.00018832258 9.6472259e-06 4.4529958e-05)
(0.00021913595 -2.0847462e-05 5.0270266e-05)
(0.00021753127 -1.9363393e-05 4.5590203e-05)
(0.000202571 -1.5264379e-05 5.4545537e-05)
(0.00021025518 -1.3359633e-05 5.5580754e-05)
(0.0001973237 -1.8189195e-05 5.4667307e-05)
(0.00015152979 1.7966528e-05 2.8388531e-05)
(0.00022583531 -2.1913865e-05 6.1221987e-05)
(0.00018902504 -1.0493815e-05 4.7911978e-05)
(0.00016165583 2.8882972e-05 2.687031e-05)
(0.00010123084 -1.9522603e-05 1.8632652e-05)
(0.00016195785 1.9337945e-05 3.1626068e-05)
(0.00013133458 1.6478733e-05 7.033468e-06)
(0.00013926061 -3.8875215e-05 8.5211567e-06)
(0.00023359826 -2.2448163e-05 6.494668e-05)
(0.00022794286 -2.3580178e-05 6.5121815e-05)
(0.00018400589 -5.4922255e-06 4.6047622e-05)
(0.0002020521 -2.3341139e-05 6.5500859e-05)
(0.00017774217 2.950129e-05 9.2165719e-06)
(0.00019518302 -7.0637386e-07 4.7153167e-05)
(0.0002085065 -2.7055153e-05 6.7178848e-05)
(0.00015791075 1.5542624e-05 3.0680283e-05)
(0.00016602878 2.2651553e-05 3.6226963e-05)
(0.0002063103 -2.0136309e-05 6.3777739e-05)
(0.00020479521 -2.410861e-05 6.7143671e-05)
(0.00019631491 -2.1637474e-05 5.7281931e-05)
(0.00013225527 1.6393233e-05 2.912974e-05)
(0.00013972024 -2.7514741e-05 2.5365114e-05)
(0.00016025239 -3.169698e-05 3.2061076e-05)
(0.00019970859 -2.623376e-05 6.7663537e-05)
(0.00020563885 -2.0419852e-05 6.1745515e-05)
(0.00015094155 6.9857429e-06 4.1186181e-05)
(0.00014433017 -1.5848719e-05 4.6434528e-05)
(0.00014314 -1.4961643e-05 4.0622032e-05)
(0.00021077021 -1.5074795e-05 3.9340857e-05)
(0.00016339739 2.4298425e-05 3.8436187e-05)
(0.00022318041 -1.4706663e-05 4.3053287e-05)
(0.00021536894 -2.2223018e-05 5.441518e-05)
(0.00020346875 -2.9827939e-05 7.3056717e-05)
(0.00020425357 -2.3218232e-05 5.643784e-05)
(0.00021000266 -1.2239353e-05 6.0994805e-05)
(0.00019220604 -2.672334e-05 6.866949e-05)
(0.00020346838 -1.2286704e-05 5.3787636e-05)
(0.00018773618 -5.3093611e-06 4.9277692e-05)
(0.00020387791 -2.3016743e-05 6.2513276e-05)
(0.00020093043 -2.5721252e-05 5.6398628e-05)
(0.00021273117 -2.7120481e-05 6.9959502e-05)
(0.00014355585 2.1525012e-05 3.4483901e-05)
(0.00023265879 -1.5691299e-05 7.1090213e-05)
(0.00014421018 1.5440334e-05 3.2898811e-05)
(0.00019124025 -2.0085687e-05 6.8011965e-05)
(0.0001604773 -2.3573194e-05 6.2702833e-05)
(0.00020359301 -2.6511117e-05 7.8957644e-05)
(0.00024511946 -3.4490938e-05 8.7782484e-05)
(0.0002301206 -1.2719514e-05 6.9401737e-05)
(0.00021970133 -2.1891718e-05 6.7984159e-05)
(0.00021305152 -1.3488986e-05 6.0328947e-05)
(0.0001204203 2.0537066e-05 2.9373788e-05)
(0.00012775282 1.3870754e-05 2.9144317e-05)
(0.00011521153 9.6562318e-06 2.3599791e-05)
(0.00022541233 -1.5972371e-05 6.9398115e-05)
(0.00015888736 1.408411e-06 3.831175e-05)
(0.00018315309 1.2069147e-05 5.6582417e-05)
(0.00014311312 5.3022368e-06 3.4950955e-05)
(0.00019458555 -2.5427428e-05 7.9804148e-05)
(0.00025597472 -3.8775185e-05 9.5876127e-05)
(0.00023310297 -3.2901857e-05 9.2642576e-05)
(0.00019395186 -2.3176299e-05 4.6824477e-05)
(0.00013386752 1.3096929e-05 2.642676e-05)
(0.00015248765 3.7262204e-06 3.6602739e-05)
(0.00019513367 -2.8179474e-05 8.1809953e-05)
(0.00021762398 -2.8326627e-05 7.1401619e-05)
(0.00019234916 -2.4468235e-05 7.7745684e-05)
(0.00019187538 -2.268416e-05 7.0779865e-05)
(0.00012024435 -4.1271125e-05 4.5907815e-06)
(0.00026183074 -3.3947831e-05 9.3713986e-05)
(0.00022056561 -1.8828367e-05 7.2198235e-05)
(0.0002376222 -3.3638882e-05 0.00010026639)
(0.00019047203 1.2581908e-06 4.661679e-05)
(0.00012447761 -4.2123728e-05 7.3114294e-06)
(0.00012193374 -5.7137021e-05 6.5153188e-07)
(0.00018877008 -2.1246429e-05 7.83059e-05)
(0.0001459454 1.8258511e-05 2.4188385e-05)
(0.00012967038 1.0100109e-05 2.8694556e-05)
(0.00021304972 -2.1721414e-05 8.2278613e-05)
(0.00023933088 -2.8622202e-05 0.00010104062)
(0.00019713627 1.8825088e-06 2.6659326e-05)
(0.00024625518 -2.9388244e-05 0.00010256191)
(0.00015930534 2.5616235e-05 2.646112e-05)
(0.00022162753 -2.6283565e-05 5.6312163e-05)
(0.00022438735 -2.0788738e-05 7.8767808e-05)
(0.00021820854 -3.2020173e-05 7.9481952e-05)
(0.00015448211 1.2674586e-06 3.6471357e-05)
(0.00015448286 -2.8229486e-05 3.0132168e-05)
(0.00023237045 -3.2187121e-05 9.6526151e-05)
(0.00023604891 -3.0563155e-05 9.4048753e-05)
(0.00022708563 -2.8851226e-05 6.3189752e-05)
(0.00020809933 -2.5108663e-05 8.5826327e-05)
(0.0001601131 3.685108e-05 1.0725729e-05)
(0.00021740572 -3.2240877e-05 5.3002373e-05)
(0.00015371986 -3.2233558e-05 2.5069721e-05)
(0.00023484544 -3.0271798e-05 0.0001075733)
(0.00020986244 -2.7502539e-05 9.3162947e-05)
(2.5419588e-05 -3.052108e-05 -4.5124705e-07)
(0.00019375524 -5.4572542e-06 5.0089082e-05)
(0.00020706013 -3.0482172e-05 9.758051e-05)
(0.00020525664 -2.8801957e-05 9.4927826e-05)
(0.00013749183 1.8943643e-05 3.0310846e-05)
(0.00019761172 -4.5791103e-06 5.5344962e-05)
(0.00024129136 -2.9183274e-05 9.4809706e-05)
(0.00023142118 -1.3918297e-05 6.9185709e-05)
(0.00023448825 -3.2153266e-05 0.00010482426)
(0.00018774452 -2.3105195e-05 7.8760314e-05)