/*--------------------------------*- C++ -*----------------------------------*\
  =========                 |
  \\      /  F ield         | OpenFOAM: The Open Source CFD Toolbox
   \\    /   O peration     | Website:  https://openfoam.org
    \\  /    A nd           | Version:  11
     \\/     M anipulation  |
\*---------------------------------------------------------------------------*/
FoamFile
{
    format      ascii;
    class       volVectorField;
    location    "10000";
    object      wallShearStress;
}
// * * * * * * * * * * * * * * * * * * * * * * * * * * * * * * * * * * * * * //

dimensions      [0 2 -2 0 0 0 0];

internalField   uniform (0 0 0);

boundaryField
{
    wall-fluid_domain
    {
        type            calculated;
        value           nonuniform List<vector> 
42723
(
(-0.0005376931 1.8344382e-05 0.00050952825)
(-0.00043516192 1.2160941e-05 0.00042262612)
(-0.00030470503 5.1221931e-06 0.0003079127)
(-0.0005204626 2.4531094e-05 0.00051006104)
(-0.00040155167 5.0024099e-06 0.00038835918)
(-0.00040790978 1.3466784e-05 0.00037863773)
(-0.00039515084 9.6414642e-06 0.00037394198)
(-0.00039655836 7.0256815e-06 0.0003830639)
(-0.00039473446 6.6842398e-06 0.00038174782)
(-0.00049061898 4.1038011e-05 0.00046721722)
(0.00011911662 4.3002267e-05 -9.0624662e-05)
(-0.00036524924 8.9568884e-06 0.00036381161)
(-0.00050804384 3.6374145e-05 0.00046969685)
(-0.00042245138 1.1728965e-05 0.00042480395)
(-0.000433246 2.9434375e-05 0.0003945266)
(-0.00015790782 -2.6478389e-05 0.00013498959)
(-0.00047903503 1.0425121e-05 0.00046723936)
(-0.00031030795 -2.2457012e-05 0.00028353805)
(-0.00042826587 7.3648851e-06 0.00041850011)
(-0.00046814568 1.1376085e-05 0.00046514747)
(-0.00052441385 -7.8994739e-05 0.0003913491)
(-0.00035610852 1.3120628e-05 0.00034573829)
(-0.00047814702 2.67857e-05 0.00042753866)
(-0.00036243 9.9413995e-06 0.00036428237)
(-0.00029663121 8.4071308e-06 0.00029964026)
(-0.00036676443 4.412538e-06 0.00037038255)
(-0.00044429284 -3.7630222e-05 0.00035089683)
(-0.00047355159 1.0698828e-05 0.00046451006)
(-0.00045870977 1.0462245e-05 0.00045985181)
(-0.0004680206 1.0054965e-05 0.00046142973)
(-0.00014003698 3.6843139e-05 9.6416655e-05)
(-0.00050291138 4.1659684e-06 0.0005106262)
(-0.00037022455 8.0389667e-07 0.00036330059)
(-0.00011297643 3.0290404e-05 7.3761544e-05)
(-0.00041510492 -4.9644186e-07 0.00041687697)
(-0.00044003179 1.9430759e-05 0.00041511213)
(-0.000441693 1.980309e-05 0.00041168645)
(-0.00045955755 8.2060971e-06 0.00045281322)
(-0.0003725598 1.2821293e-05 0.00036055523)
(-0.00052694971 7.1305044e-06 0.00051076815)
(-0.00038896614 1.3845588e-06 0.00039112105)
(-0.00042600799 3.9128599e-06 0.00041766001)
(-0.00036639515 -1.8983012e-06 0.000358758)
(-0.00042762287 4.6578234e-06 0.00042204685)
(-8.9980446e-05 2.8192571e-05 6.3533641e-05)
(-0.00034560406 3.7943204e-07 0.00032713711)
(-0.00042042425 7.3236858e-06 0.00042285125)
(-0.00050947324 9.7882558e-06 0.00050990575)
(-0.00043477409 6.1311787e-06 0.00042050584)
(-0.00040250479 3.1664565e-06 0.00039010695)
(-0.00052915217 1.8301678e-05 0.00049761035)
(-0.00041824815 3.0959552e-06 0.0004085379)
(-0.00037630255 8.5175425e-07 0.00037712641)
(-0.00044493924 2.202731e-05 0.0004458039)
(-0.00011559093 3.5492244e-05 8.3873034e-05)
(-0.00030075559 3.3515002e-06 0.00029692809)
(-0.0005090022 2.491538e-05 0.00049336507)
(-0.00053378247 1.3309799e-05 0.00051796127)
(-0.00040209843 8.9814804e-08 0.00039693931)
(-0.00042653939 3.1653733e-06 0.0004171161)
(-0.00010746184 2.7125717e-05 7.7307221e-05)
(-0.00035796054 1.7708567e-06 0.00035580973)
(-0.0002915543 -6.8895944e-07 0.0002932218)
(-0.00045553789 -2.6100398e-05 0.00036117035)
(-0.00046183815 5.3720972e-06 0.000327175)
(-0.0003565634 8.0477896e-07 0.00035472185)
(-0.00041650465 2.0341597e-06 0.00040123118)
(-6.5309137e-05 1.4907353e-05 5.7313057e-05)
(-0.00044216304 1.6983801e-05 0.00043311946)
(-0.0003831729 1.2075049e-05 0.00037554537)
(-0.00037110739 3.5985589e-06 0.00035972976)
(-0.00034281487 -1.3015806e-06 0.00033633765)
(-0.00035499831 -8.1287016e-07 0.00035046676)
(-0.00032711688 1.5048092e-05 0.00033272725)
(-0.00033799337 -1.5529614e-06 0.000335746)
(-0.00036043473 2.0232029e-07 0.00035667367)
(-0.00042647375 -4.8369908e-06 0.00042118929)
(-0.00036736838 1.2978778e-05 0.00036228885)
(-0.0003905426 -7.4402282e-07 0.00038120057)
(-0.00040222488 -5.6080939e-06 0.00039857708)
(-0.0003846802 1.0212632e-06 0.00038107157)
(-0.0003670759 -4.650647e-06 0.00036400723)
(-0.00043230414 -4.3511703e-06 0.00041946525)
(-0.00039488243 -1.9688826e-07 0.00038847889)
(-0.00037187224 -1.3142414e-06 0.00035858944)
(-2.1357488e-05 -2.356799e-05 6.8081635e-05)
(-0.00043261648 1.2037401e-05 0.00041847738)
(-0.00038376856 -5.3574216e-06 0.00036882667)
(-0.00036522492 -3.8326805e-06 0.000361983)
(-0.00036765458 -5.2992755e-06 0.00036292207)
(-0.00041132412 3.7885581e-06 0.00039620743)
(-0.0004313908 -5.9325127e-06 0.00041938369)
(-0.0002988715 -1.1271369e-07 0.00029431168)
(-0.0004716407 2.3312889e-06 0.00032667882)
(-0.00046422134 8.704752e-06 0.00026595896)
(0.00012428441 -5.9039896e-05 -0.00013449322)
(-0.00037044364 -8.7186174e-07 0.0003603716)
(-0.00029805223 -2.6657808e-06 0.0002977007)
(-0.00037514051 -2.7362531e-06 0.00036565863)
(-0.00033977261 -5.5361498e-06 0.00034291868)
(-0.00040310053 -2.3054397e-05 0.0003807528)
(-0.00036723432 -7.5474883e-06 0.00035698296)
(-0.00043861692 5.4564071e-06 0.00031730171)
(-5.8027548e-05 2.3889898e-05 0.00010670123)
(-0.00038549943 -6.445486e-06 0.00037174336)
(-0.00036792826 -9.7613918e-06 0.00037563978)
(-5.8470439e-05 3.08659e-05 0.00010786623)
(-0.00027953937 -1.0729164e-05 0.00025888176)
(-0.00041644239 1.2212921e-05 0.00033083618)
(-0.0002089686 2.7168928e-05 0.00015742555)
(-0.00037712944 -1.1855837e-05 0.00037170651)
(-0.00046347237 6.6774928e-06 0.00039672454)
(-0.00044823526 2.0646152e-05 0.00035427469)
(-0.0003743556 3.1499935e-06 0.00036316902)
(-0.00039182743 -9.0399143e-06 0.0003898808)
(-0.00039135966 -7.1213235e-06 0.00039125313)
(-0.00054966994 -3.6462513e-06 0.00033757928)
(-0.00035032774 -2.171015e-07 0.00034567426)
(-0.00032433492 -6.2517425e-06 0.0003300857)
(-5.0994503e-05 -3.8908656e-06 7.1090085e-05)
(-0.00035784151 3.4933197e-06 0.00024747534)
(-0.0003544194 -1.5000902e-06 0.00034666426)
(-0.00030064073 -9.8209958e-06 0.00030168092)
(-0.00056652536 -4.145984e-05 0.00046065656)
(-0.00039160805 -9.7326355e-06 0.00038550669)
(-0.00039613277 1.7253993e-06 0.00039002103)
(-0.00062153197 -7.4053775e-05 0.00047106526)
(-0.00040409118 -8.2494514e-06 0.00039225112)
(-0.00041193679 1.679094e-05 0.00035625963)
(-0.00030063143 -7.8223582e-06 0.00029910429)
(-0.00037073336 3.5801602e-07 0.00036486987)
(-0.00037890434 -1.1517461e-05 0.00036461601)
(-0.00047862393 5.2688899e-06 0.00047849173)
(-0.00045509716 3.8444995e-05 0.00028590799)
(-0.00040866597 -8.7353018e-06 0.00039161345)
(-0.00034033509 -3.3948776e-06 0.00033908606)
(-0.00035754583 -1.2515806e-05 0.00035003404)
(-0.00036533275 -1.1641893e-06 0.00035524082)
(-0.00038573484 7.2954295e-07 0.00037556027)
(-0.00044436475 1.3073629e-05 0.0004192475)
(-0.00052784246 1.1011697e-05 0.00030532788)
(-0.00042586059 4.4716273e-05 0.0003008407)
(-0.00038502329 -1.1394073e-05 0.00037377328)
(-0.0004716758 4.2737069e-05 0.00031408739)
(-0.00041056626 -5.0872693e-06 0.00039911384)
(-0.00037323349 -5.7759161e-06 0.00036099219)
(5.9222034e-05 -4.7842426e-05 -5.7950313e-05)
(-0.00049939923 -2.7828406e-06 0.00030373942)
(-0.0004480478 5.9688752e-06 0.00042552084)
(-0.0003729479 -4.6270583e-06 0.00036394361)
(-0.00036057463 -7.8364119e-07 0.00034839412)
(-0.00034824755 3.3010778e-06 0.00034369646)
(-0.0004032309 -1.1613939e-05 0.00038377044)
(-0.00029138492 -4.6098254e-06 0.00027797123)
(-0.00041610956 -2.0544926e-05 0.00036849373)
(-0.00036789248 -3.8779124e-07 0.00035526549)
(-0.00037206224 -1.2367884e-05 0.00035400774)
(-0.00034988256 -1.0902953e-05 0.00033734075)
(-0.0005438677 1.1940966e-05 0.0003190904)
(-0.00041858538 -1.0645215e-05 0.00040723204)
(-0.00028685082 -6.2093971e-06 0.00027645565)
(-0.0004309655 -3.016601e-08 0.00031174626)
(-0.0004145598 1.5452272e-05 0.00038003849)
(-0.00031342486 -1.6222963e-06 0.00030359438)
(-0.00025383073 5.0161886e-06 0.00025439712)
(-0.00041051052 -9.5036629e-06 0.00039013116)
(-0.00031731836 -1.2873906e-06 0.00030410102)
(-0.00037869894 2.1048177e-06 0.00036515293)
(-9.442948e-05 2.7596821e-07 0.00010911665)
(-0.0005998872 -5.4341412e-05 0.00045888402)
(-0.00035734764 -4.2049739e-06 0.00033635282)
(-0.00015650474 -1.5163256e-05 0.00014162589)
(-0.00023685978 4.1431084e-05 0.00018488944)
(-0.00043023487 1.329931e-05 0.00042197437)
(-0.00030992026 7.6344177e-06 0.00030771535)
(-0.00031097158 6.9864334e-07 0.00030063717)
(-0.00043701824 1.6234134e-05 0.00039825642)
(-0.00031109865 -4.0747191e-06 0.00029993194)
(-0.00015824845 4.6339999e-05 9.6572322e-05)
(-0.00036530766 1.2788388e-07 0.00035422842)
(-0.00031113259 -1.2065832e-06 0.00029776048)
(-0.00032864925 -1.3795314e-06 0.00032104842)
(-0.00015735488 5.8274973e-05 9.936278e-05)
(-0.00038099833 1.3577278e-06 0.00036809999)
(-0.00041188343 -1.0482342e-05 0.00040765886)
(0.00016811315 8.9225583e-05 -0.00013125068)
(-0.00044443448 6.8114494e-06 0.0004304425)
(-0.00017151924 3.9775957e-05 0.00010772464)
(-0.00023980545 -7.9459248e-07 0.00024017539)
(-0.0003792765 3.0196257e-06 0.00036562334)
(-0.00012746293 -2.6267157e-06 0.00012748415)
(-0.00052315588 2.117952e-05 0.00034793732)
(-0.00033214872 1.0497691e-06 0.00033610961)
(-0.00037364986 1.5789238e-06 0.00036466406)
(-0.00037956954 2.8566942e-06 0.00036584654)
(-0.00042213883 1.852233e-06 0.000421305)
(-0.00032765929 9.6052173e-07 0.00033356837)
(-0.00037028489 1.4133675e-06 0.00036148676)
(-0.00049033511 -6.8144689e-05 0.00036246403)
(-0.00044821779 6.2211165e-06 0.00044395313)
(-0.00034078142 5.9370032e-06 0.00033816697)
(-0.00041840226 -1.8883898e-05 0.00036799827)
(-0.0004605485 1.0445685e-05 0.00044130626)
(-0.00015311154 -8.8881696e-06 0.00013105423)
(-0.00040663724 8.6786912e-06 0.00026833518)
(-0.00041582064 1.3341955e-05 0.00038087751)
(-0.00037860587 -1.3356095e-05 0.00037298593)
(-0.00040729925 -1.9175401e-05 0.0003992854)
(-0.00037303719 2.519862e-06 0.00036535056)
(-0.00046972679 1.1464336e-05 0.00044449539)
(-0.00039025626 2.9273204e-06 0.00037862141)
(-0.00046378118 3.1725576e-05 0.00043783282)
(-0.0003193348 1.1969815e-05 0.00023789569)
(-0.00043861372 3.2116213e-06 0.00043435979)
(-0.00011617736 -1.4580058e-05 0.00010508444)
(-0.00011502155 -5.2514658e-06 0.0001086006)
(-0.00045851198 1.7184177e-06 0.00044367924)
(-0.00042507011 2.4408174e-05 0.00039765208)
(-0.00037811355 -1.1625041e-05 0.00035984722)
(-0.00042847226 1.817679e-05 0.00028631482)
(-0.00046780132 6.4074355e-06 0.00045142948)
(-0.00046867827 5.8717275e-06 0.00045119505)
(3.5688161e-05 -2.2450449e-05 -5.6420814e-05)
(-0.00046652565 2.9878673e-05 0.00044796387)
(2.5513798e-05 7.2713028e-05 -5.4676866e-05)
(-0.00056074986 -4.411156e-05 0.00045260989)
(-0.00047935721 1.0778547e-05 0.00046095956)
(-0.00040729224 -6.6531356e-07 0.00040436675)
(-0.00036662666 4.3962871e-06 0.00035409135)
(-0.00035321102 9.2186541e-06 0.00033771288)
(-0.00045024593 4.1480625e-06 0.00044819216)
(-0.00041146596 -2.8765502e-06 0.0004000109)
(-0.00014111482 6.430974e-05 9.3808885e-05)
(-0.00034569124 7.7193971e-06 0.00034139967)
(-0.00043065097 -1.1195777e-05 0.00040728171)
(-0.0004379811 1.8719095e-05 0.00041594626)
(-0.00048352373 4.2734952e-06 0.00047301325)
(-0.00038161937 -3.0871187e-05 0.00022257025)
(-0.00047060345 8.382708e-06 0.00046016133)
(-0.00051725899 3.175888e-05 0.00049734172)
(-0.00046835789 3.8326699e-06 0.0004583449)
(-0.00041725428 -1.5803158e-06 0.00041064206)
(-0.00039784564 -9.9777366e-06 0.00024443156)
(8.7024348e-05 4.5561679e-05 -7.8967606e-05)
(-0.00024593958 2.9275394e-06 0.00021845744)
(-0.00036431876 -9.4320217e-06 0.00034095657)
(-0.00045029724 -1.103589e-05 0.00043258862)
(-0.00036996011 -8.9277722e-06 0.00034574906)
(-0.00045756924 -5.8053915e-05 0.00027788954)
(-0.00037815881 2.8157972e-05 0.00025250704)
(-0.00044231327 -9.852721e-06 0.00042809964)
(-0.00049442688 3.2341691e-05 0.00048467529)
(-0.00036715305 2.5096047e-05 0.00024058963)
(-0.00044344005 -3.7514337e-07 0.00044885049)
(-0.00039346455 -2.2797866e-06 0.00038188689)
(-0.0004202293 -1.7921516e-05 0.00040292962)
(-0.0004364911 2.4104783e-05 0.00043177512)
(-0.00044421691 2.2437385e-05 0.00044325465)
(-0.00050753758 -8.5326832e-07 0.00049052764)
(-0.00045139574 -9.4004922e-06 0.00043320085)
(-0.00039314775 -3.5005158e-06 0.00038736146)
(-0.00038766827 1.5111684e-05 0.00026323983)
(-0.00041811547 -1.1330167e-05 0.00030281692)
(-0.00016324236 -2.0720758e-05 0.00015258919)
(-0.00045362038 -4.6804684e-06 0.00046006408)
(-0.00042400919 -1.3276013e-05 0.00040273724)
(-0.00041549951 -8.9943525e-06 0.00041599866)
(-0.00057212182 -9.1419207e-05 0.00037121903)
(-0.0003610884 -1.1026156e-05 0.00036040467)
(-0.00047092411 -1.2160841e-05 0.00046197052)
(-0.00048657864 -3.6677511e-05 0.00038527246)
(-0.00037064861 -1.0500978e-05 0.00037410835)
(-0.00043361744 -1.3010078e-05 0.00040864355)
(-0.000423477 -8.9512328e-06 0.00041402996)
(-0.00044985999 1.5740228e-05 0.00042287652)
(-0.00046093352 4.1320933e-05 0.00039140609)
(-0.00034500784 5.0359828e-06 0.00033180092)
(-0.00054997497 -3.7077905e-05 0.00044679108)
(-0.00041297673 -1.1700659e-05 0.00039281385)
(-0.00038506953 -1.5341614e-05 0.00038103809)
(-7.7748895e-05 -5.5419507e-05 0.00014667541)
(-0.00040485404 -1.3266054e-05 0.00039035905)
(-8.9175717e-05 -4.8390631e-05 0.00014947683)
(-0.00039774086 -9.3923715e-06 0.00038631957)
(-0.00054733291 -5.1061579e-05 0.00043840918)
(-0.00048274236 -2.2991207e-05 0.00027185985)
(-0.00036432797 -1.4020574e-05 0.00034581858)
(-0.0001272859 6.0765486e-05 7.3104475e-05)
(-0.00042830471 1.8884032e-05 0.00039583179)
(-0.00044958608 2.3470764e-05 0.00041499738)
(-0.00037646084 -6.7905255e-06 0.0003443897)
(-0.00042205862 -2.390855e-05 0.00041118509)
(-0.00045889825 2.1473669e-05 0.00042019301)
(-0.00043921291 -2.2223577e-05 0.00041716869)
(-0.00044469454 -2.5718709e-05 0.00042616912)
(-0.00041609277 -7.2835948e-05 0.00027830792)
(-0.00038666488 -1.4182363e-05 0.00037642447)
(-0.00036601133 -1.3496181e-05 0.0003437197)
(7.2398139e-05 4.5584726e-05 -5.5396083e-05)
(-0.00046304625 -2.0749644e-05 0.00043159796)
(-0.00040299964 -1.669524e-05 0.00038153565)
(-0.00042771687 -1.6288831e-05 0.00039568492)
(-0.00041262594 -8.5973745e-05 0.00026298651)
(-0.00036770964 -2.0688467e-05 0.00035214225)
(-0.0003705732 -1.4003808e-05 0.00035043111)
(-0.00043331767 -1.7349438e-05 0.0004016689)
(-0.00042615215 1.0190965e-05 0.00042481851)
(-0.00036996781 -1.8894081e-05 0.00034384918)
(-0.00044422099 -1.9619926e-05 0.0004215174)
(-0.00039905155 -2.4872685e-05 0.00037906243)
(-0.0003843628 -1.7974889e-05 0.0003528253)
(-0.00036579318 -1.2009117e-05 0.00034252791)
(-0.00042288085 -1.6068419e-05 0.00040048032)
(-0.00043203658 -1.8121607e-05 0.00040643857)
(-0.00034102755 -1.0778158e-05 0.0003180325)
(-0.00024075938 4.3533978e-05 0.0001815629)
(-0.00042276047 -1.7854807e-05 0.00040191387)
(-0.00028349521 4.6653257e-05 0.00021170136)
(-0.00041552037 -1.8087438e-05 0.00039664997)
(-0.0003548388 -1.4243054e-05 0.00034570639)
(-0.00038099805 -1.987276e-05 0.00037483408)
(-0.00034806384 1.1155153e-05 0.00034390443)
(-0.00038610016 -1.7227403e-05 0.00037375162)
(-0.00024886798 4.2540827e-05 0.00018749351)
(-0.00043159659 -1.8342478e-05 0.00040682881)
(-0.00041851944 -2.2646386e-05 0.00041107161)
(-0.00046986582 1.4891901e-05 0.00044789495)
(-0.00043001853 -1.8583014e-05 0.00040516627)
(-0.00044247436 2.4267179e-05 0.00041831161)
(-0.00042334642 -2.0450812e-05 0.00040973403)
(-0.00041790505 -2.3306683e-05 0.00039825113)
(-0.00044730188 -2.2412003e-05 0.00042275967)
(-0.00044521025 -2.577136e-05 0.00042625232)
(-0.00039852919 -2.6680703e-05 0.00038623844)
(-0.00040406067 -2.2533137e-05 0.00037429659)
(-0.00041415321 -2.6954691e-05 0.00038683191)
(-0.00056651022 2.2552316e-05 0.00057219816)
(-0.00045501642 2.4753489e-05 0.00042962911)
(-0.000415159 -2.3410571e-05 0.00040784922)
(-0.00035398006 -1.869843e-05 0.00032173326)
(-0.00012303204 -4.3497708e-05 0.00016494333)
(-0.00042334266 -1.9093e-05 0.0003953754)
(-0.00038221799 -1.9973512e-05 0.00036745808)
(-0.00039515118 -2.1004223e-05 0.00038288567)
(-0.00036933554 -1.790443e-05 0.00034183894)
(-0.00045854326 -2.3286232e-05 0.00045346033)
(-0.00041426566 -2.1932251e-05 0.00040572359)
(-0.00039847716 -2.559287e-05 0.00037662108)
(-0.00037896173 -2.0521379e-05 0.00036780159)
(-0.00044380438 -2.4605836e-05 0.00041463075)
(-0.0004186125 -2.9951734e-05 0.00039600362)
(-0.0004906518 -1.6566345e-05 0.00027611044)
(-0.00042728178 -2.6792678e-05 0.00040378581)
(-0.00033414124 -1.7436121e-05 0.00032460862)
(-0.00038616984 -2.759903e-05 0.00037279573)
(-0.00040469856 -1.7255852e-05 0.00041976282)
(-0.0004031247 4.7046347e-06 0.000299608)
(-0.00041161011 -2.0874468e-05 0.00039791535)
(-0.00037231157 -1.9354296e-05 0.00036001781)
(-0.00042257054 -6.2910417e-05 0.00025502427)
(-0.00033321074 -1.9579229e-05 0.00033164664)
(-0.00056093948 1.5236948e-05 0.00054837457)
(-0.0004117754 -1.8229186e-05 0.00039995879)
(-0.00043886739 -2.1834518e-05 0.00043190522)
(-0.00040287288 -2.2813827e-05 0.00040217885)
(5.8649205e-05 8.3085092e-05 -8.6883402e-05)
(-0.00044453338 1.7497829e-05 0.00042854863)
(-0.0004761446 1.6135058e-05 0.00045126036)
(0.00013160788 2.2587276e-05 -9.5395353e-05)
(-0.0005455189 4.5540729e-05 0.00047808351)
(-0.00041714355 1.7727071e-05 0.00037316349)
(-0.00031735324 7.3745505e-06 0.00023887202)
(-0.00042643197 2.5913439e-05 0.00039422218)
(-0.00040812286 2.0720147e-05 0.0003707578)
(-0.00042519133 1.565321e-05 0.00038121561)
(-0.00042310004 2.7057637e-05 0.00038044291)
(-0.00044306567 2.6659808e-05 0.00040078084)
(-0.00044493054 2.1580841e-05 0.00038859864)
(-0.00042358133 3.099809e-05 0.00038499885)
(-0.00028028015 -5.4565183e-05 0.00019669171)
(-0.00046470353 2.5730494e-05 0.00043601638)
(-0.00044526341 2.6608025e-05 0.00038871014)
(-0.00015205234 4.072945e-05 0.00010558333)
(-0.00043315883 2.7280163e-05 0.00038553493)
(-0.00039645562 2.5233885e-05 0.00037035052)
(-0.00049951657 2.798735e-05 0.00052280645)
(-0.00055736008 -4.7180815e-05 0.00046328115)
(-0.000464446 -3.4147892e-05 0.00036515156)
(-0.00040953099 2.4719243e-05 0.00038037278)
(-0.00045191069 -2.1267097e-06 0.00039357092)
(-0.00058689975 -5.7526807e-05 0.00044893204)
(-0.00039982269 2.399995e-05 0.00036443672)
(-0.00042591407 2.0465444e-05 0.00040192919)
(-0.00042592809 2.9488166e-05 0.00040399853)
(-0.00039562689 2.5254158e-05 0.0003817667)
(-0.00047774005 2.9116429e-05 0.00044034812)
(-0.00042202899 2.1085967e-05 0.00040527187)
(-0.00043984584 2.9603001e-05 0.00040702788)
(-9.4340337e-06 -3.6409823e-05 7.935352e-05)
(-0.00050499003 2.551559e-05 0.00049348107)
(-0.00037447145 1.4376708e-05 0.00036336537)
(-0.00041784366 3.2185542e-05 0.00038384973)
(-0.00051849962 2.3383604e-05 0.00051080283)
(-0.00039844386 2.9480138e-05 0.00037776003)
(-0.0004132523 3.0119838e-05 0.00036877511)
(-0.00036931799 1.1318425e-05 0.00033649362)
(-0.00046951384 4.3186459e-05 0.00038209117)
(-0.00040569819 3.0753522e-05 0.00037593351)
(-0.00049328911 3.1939239e-05 0.00047119421)
(-0.00043315715 3.4755848e-05 0.00040521277)
(-0.00049063595 2.6113874e-05 0.00045964204)
(-0.00042439625 3.1133239e-05 0.00038503176)
(-0.00044114528 3.2271486e-05 0.00040019642)
(-0.00046756326 2.9666185e-05 0.00043500357)
(-0.00042131183 3.3369849e-05 0.00038853371)
(-0.00050336702 2.9642212e-05 0.00047502564)
(-0.00042278928 2.8560753e-05 0.00038348097)
(-0.00046876971 2.6951225e-05 0.0004367464)
(-0.00049117647 2.7978333e-05 0.0004614156)
(-0.00043070459 2.9912914e-05 0.00038908954)
(-0.0003661982 2.7083399e-05 0.00034868796)
(-0.00044972985 2.7683165e-05 0.00039768466)
(-0.0004279677 2.8760051e-05 0.00040408643)
(-0.00038860987 -1.4219096e-05 0.00035305776)
(-0.00046517515 2.9376461e-05 0.00043166134)
(-0.00037035204 2.9761457e-05 0.00036097008)
(-0.00047587794 3.847467e-05 0.00043977957)
(-0.00044503612 2.9917699e-05 0.00042989908)
(-2.0444088e-05 -5.1584842e-05 0.00011254445)
(-0.00024090952 -6.2812971e-05 0.00015048115)
(-0.00041675754 2.824307e-05 0.00041404823)
(-0.00045641146 2.6165283e-05 0.00043191347)
(-0.0003530735 -1.9759014e-06 0.00033840689)
(-0.00044777489 3.3016018e-05 0.00042263946)
(-0.00047613913 3.2454955e-05 0.00047021971)
(-0.00043596064 2.5053344e-05 0.00042381633)
(-0.00044602076 3.4092493e-05 0.00041306129)
(-2.1818944e-05 -4.459683e-05 0.00011310456)
(-0.00036930281 -2.0866787e-05 0.00032934246)
(-0.00045188772 3.082675e-05 0.00044002029)
(-0.00046831972 2.9776621e-05 0.00043956974)
(-0.0004677383 3.7925127e-05 0.00042786584)
(-0.00047344331 3.6686336e-05 0.0004311331)
(-0.00050166169 4.3581745e-05 0.00046650065)
(-0.00046481614 3.2348994e-05 0.00044101371)
(-0.0004620904 3.5561666e-05 0.00043257102)
(-0.00037812438 -5.4098624e-06 0.0003698056)
(-0.00049327294 3.8196449e-05 0.00045913028)
(-0.00038550196 -2.4767379e-05 0.00036102202)
(-0.00039186337 -2.2223375e-06 0.00038166887)
(-0.00042523853 -2.5484617e-05 0.00039354221)
(-0.00023079075 -6.1727389e-05 0.00012662704)
(-0.00042163303 -2.3571948e-05 0.00040193008)
(-0.00039415925 -2.9070681e-05 0.00037973122)
(-4.3230091e-05 -5.2986756e-05 0.00014562594)
(-0.0003893156 -1.478605e-06 0.00037751432)
(-0.00042326805 3.2828966e-05 0.00038158926)
(-0.00047754508 3.8426157e-05 0.00043725911)
(-0.00050126036 3.1576478e-05 0.0004644216)
(-0.0004873654 2.8879317e-05 0.00047529064)
(-0.00046494474 2.763009e-05 0.00044312924)
(-0.00042806051 2.9548724e-05 0.00039086637)
(-0.00043388042 2.3458693e-05 0.00042073961)
(-0.00027215944 3.2123762e-05 0.00020213634)
(-0.00050718912 3.3947743e-05 0.00045781865)
(-0.00043342532 -1.4807737e-05 0.00041775445)
(-0.00047877513 -2.761635e-06 0.00046424928)
(-0.00050344747 3.734869e-05 0.00045574397)
(-0.00039246742 2.6213451e-05 0.00035072881)
(-0.00046059046 4.3781056e-05 0.00036040234)
(-0.000493105 2.9683801e-05 0.00048001082)
(-0.00046781227 3.3403838e-05 0.00042442011)
(-0.00045501692 2.4359283e-05 0.00045508688)
(-0.00057979643 1.1836509e-05 0.00055088447)
(-0.00038066891 -2.2817908e-05 0.00037579504)
(-0.00041825687 2.4535741e-05 0.00034841758)
(-5.5260813e-05 -5.7320775e-05 0.00015068749)
(-0.00046206155 2.209986e-05 0.0004610357)
(-0.00020057708 3.6173181e-05 0.00015908112)
(-0.00043426551 -1.4485437e-05 0.00041915417)
(-0.00041663402 2.3163052e-05 0.00040036544)
(6.2132089e-05 0.00010798146 -0.00011069122)
(-0.00053066442 3.0270505e-05 0.00051168106)
(-0.00048787027 2.3896398e-05 0.0004739038)
(-0.00021880245 3.1762066e-05 0.000169399)
(0.00013626885 -7.4201235e-05 -0.00014277828)
(-0.00043798773 1.5775791e-05 0.00042770501)
(-0.00053393272 2.964095e-05 0.00051434685)
(-0.0004149513 2.3456387e-05 0.00040822687)
(-0.00038737442 -1.4883857e-05 0.00038305286)
(-0.00046573925 2.0672985e-05 0.00045478551)
(-0.00042534813 2.2352153e-05 0.00042754259)
(-0.00037943394 1.1923679e-05 0.00037152388)
(-0.00047985067 3.0926767e-05 0.00046213654)
(-1.7190838e-05 -6.3780087e-05 -1.5212609e-05)
(-1.2797932e-05 -4.3839855e-05 0.00010005668)
(-2.9997421e-05 -4.9817604e-05 1.4681769e-05)
(-0.000465226 2.1636422e-05 0.00045729338)
(-0.00050709124 2.3975338e-05 0.00051034603)
(-0.00052401761 3.1011422e-05 0.00050730474)
(-0.00047460469 -1.7563492e-06 0.00046333183)
(2.5345614e-05 -8.357463e-05 -5.6957954e-05)
(-0.00043846127 2.1143777e-05 0.00042758964)
(-0.00041217406 2.7483639e-05 0.00040291105)
(-0.00048287037 2.6638353e-05 0.00047983085)
(-0.00059499896 4.5378026e-05 0.0005986151)
(-0.00034135888 -1.4096013e-05 0.00035382129)
(0.00017820668 6.8431969e-05 -0.00017117574)
(-0.00041016447 -1.998756e-05 0.00040786243)
(0.00017157149 6.1923707e-05 -0.00014783626)
(-0.00043569314 2.5459526e-05 0.00042310344)
(-0.00037251997 -1.9194023e-05 0.00037021879)
(-0.00052091628 2.1844071e-05 0.00051637928)
(-0.00048206356 -5.8199081e-06 0.00046100291)
(-0.00050987838 -4.285626e-05 0.00050581884)
(-0.00041731378 -1.7648137e-05 0.00041979238)
(-0.00041094632 1.6117645e-05 0.00041918434)
(-0.00052659006 2.5022098e-05 0.00052245356)
(-0.00042917683 2.2688351e-05 0.00043073913)
(-0.00049359109 2.6302058e-05 0.000484776)
(-0.00031851281 -7.0421364e-06 0.00031421036)
(-0.00047784919 1.5530638e-05 0.00048296957)
(-0.00041718309 1.7502608e-05 0.00041670859)
(-0.00048745901 2.195802e-05 0.00049017023)
(-0.00041633978 -4.0850688e-06 0.00040554662)
(-0.00047543837 2.3693384e-05 0.00048001377)
(-0.00045393836 2.251875e-05 0.00045154125)
(-0.00034361574 -4.4672412e-06 0.00034180247)
(-0.00029226266 3.8748136e-06 0.00028825298)
(-0.00048693361 2.2279609e-05 0.00048447216)
(-0.00049241024 1.4539328e-05 0.00048750677)
(-0.00050162545 2.1056946e-05 0.00049264426)
(-0.00036115898 1.7079455e-05 0.00035907871)
(-0.00043932119 1.9305477e-05 0.0004453036)
(-0.00038505222 1.6356723e-05 0.00038842898)
(-0.00049321455 2.1655084e-05 0.00047990901)
(-0.00047049995 2.0216658e-05 0.00047667179)
(-0.00042035609 1.9051185e-05 0.00040758016)
(-0.00040113031 3.2371061e-05 0.00035584301)
(-0.00042666003 -2.1261045e-05 0.00039044827)
(-0.00045888693 2.104361e-05 0.00044783483)
(-0.00033573905 3.7347263e-05 0.00026433358)
(-0.0004165422 1.698648e-05 0.00041194968)
(-0.00050636569 1.8454751e-05 0.00052390881)
(-0.00040975431 -3.0080417e-05 0.00038538956)
(-0.00044674938 -9.3422657e-06 0.00030859974)
(-0.00051750406 1.5905617e-05 0.00052267939)
(-0.00039487733 -2.7127818e-05 0.00037453234)
(2.7323209e-05 -5.2518683e-05 -3.3614811e-05)
(-0.00040476272 2.0051124e-05 0.00040997499)
(-0.00044362766 2.1158474e-05 0.00044535347)
(-0.00049139558 2.3088832e-05 0.00049261728)
(-0.00044477129 1.6350015e-05 0.00043741779)
(-0.0004070687 -2.4799025e-05 0.00037941789)
(-5.3868649e-06 -4.6646326e-05 8.6537788e-05)
(0.00016481314 -3.724544e-05 -0.0001564599)
(-0.00041994021 -2.3682101e-05 0.00040250449)
(-0.00012967501 -3.989447e-05 9.5466779e-05)
(-0.00034193302 1.0569144e-05 0.000339736)
(-0.00041196752 2.4901567e-05 0.00039788374)
(-0.00046489139 2.1205073e-05 0.00045631618)
(-0.00045713315 1.7869536e-05 0.00045333187)
(-0.00035737507 -1.4074354e-05 0.00032323322)
(-0.0003773079 -1.5471413e-05 0.00033978345)
(-0.00041617539 -2.3045145e-05 0.00039790563)
(-0.00045342545 1.7654132e-05 0.00044260566)
(-0.00039498951 -4.9389638e-06 0.00029380415)
(-0.00049128392 2.2412101e-05 0.00047754806)
(-0.00034953794 -6.3967849e-06 0.00033666546)
(-0.00030599927 -5.3523882e-06 0.00029070342)
(-0.00045003741 1.8250534e-05 0.0004430512)
(-0.00048782308 1.5609371e-05 0.0004848117)
(-0.0004866599 1.6818735e-05 0.00048435951)
(-0.00042449475 1.565021e-05 0.00042172005)
(-0.00036836219 1.5319508e-05 0.00035992918)
(-0.00039898644 1.2975373e-05 0.00041530331)
(-0.0003860842 -2.060699e-05 0.00037505613)
(-0.00048870533 1.5046281e-05 0.00048724371)
(-0.00049114068 1.3229292e-05 0.00048977914)
(-0.00035689079 1.2106144e-05 0.00036176584)
(-4.8242816e-06 -4.8791325e-05 8.9547978e-05)
(-0.0002447166 -7.1074537e-05 0.00012184665)
(-0.00036480475 -2.3701256e-05 0.00033237243)
(-0.00014874739 4.5342718e-05 9.4765264e-05)
(-0.00043881742 8.9408687e-06 0.00044201229)
(-0.00051103092 -1.9866742e-07 0.00049053797)
(-0.00016226211 4.1190812e-05 0.00010658249)
(-0.00049554649 1.3673249e-05 0.00048807164)
(-0.00045204508 1.6037191e-05 0.00043904378)
(-0.00040092398 2.047539e-05 0.00039520924)
(-0.00016667896 -3.6419925e-05 0.00011737695)
(-0.00014601448 5.2774461e-05 8.9837293e-05)
(-0.00047966941 -3.8765278e-05 0.00041319805)
(-0.00041431298 -2.2415181e-05 0.00041124798)
(-0.00046386432 6.2849678e-06 0.00046183731)
(-0.00029382023 2.3574013e-06 0.00029153214)
(-0.0004648578 1.4937652e-05 0.00045022485)
(-0.00040744105 -2.0009435e-05 0.00041181809)
(-0.00014124784 5.7241331e-05 8.6436666e-05)
(-0.00045520389 -2.2701044e-05 0.00044988107)
(-0.00020822712 -4.0105825e-07 0.00019117365)
(-7.9225946e-05 1.0216109e-05 0.00011133147)
(-0.00042407318 -1.9937729e-05 0.00039389566)
(-0.00042909347 -1.1644505e-05 0.00041572379)
(-0.00043447233 -2.3648529e-05 0.00039970404)
(-0.00043197221 -1.6685401e-05 0.00038904041)
(-0.00043588932 -2.4207863e-05 0.00040009154)
(-0.00044820835 -2.1731108e-05 0.00044785614)
(-0.00049113638 5.6061312e-05 0.00029351198)
(-0.00042920796 -2.7561044e-05 0.00039340953)
(-0.00031799052 -2.4972949e-05 0.00030715572)
(-0.0002841147 2.0718654e-05 0.00023823209)
(-0.00029055304 -9.1843457e-06 0.00028440666)
(-0.00040822219 -2.5492854e-05 0.00038791472)
(-0.00032451585 -2.6202162e-05 0.00031994665)
(3.2043331e-05 -8.5860155e-05 6.0323501e-05)
(-0.00043980987 -2.4165746e-05 0.00041623533)
(-0.00042276495 -2.4943472e-05 0.00039218461)
(-0.0005074572 -1.4813271e-05 0.00052460143)
(-0.00036417134 -2.6189355e-05 0.00035856371)
(-0.000671626 -1.185011e-05 0.00067270552)
(-0.00035926198 -2.9998173e-05 0.00033645429)
(-0.00044017471 -2.6624784e-05 0.00041692561)
(-0.00031553065 -2.4123036e-05 0.0003005052)
(-0.00045332845 -1.0540124e-05 0.00043090469)
(-0.00037918114 -2.0531147e-05 0.00036667519)
(-0.00042487151 -2.2158746e-05 0.0004054711)
(-0.00038156736 -2.1042838e-05 0.0003712294)
(-0.00042301909 -2.3811019e-05 0.00039362)
(-0.00039566694 -3.036021e-05 0.00037942747)
(-0.00040657771 -2.2579411e-05 0.00037997094)
(-0.00042244612 -2.2511172e-05 0.00041986593)
(-0.00036657298 -2.1768821e-05 0.00036364641)
(-0.00047400908 -2.2020189e-05 0.00046205394)
(-0.00033389105 -1.9691644e-05 0.00033035715)
(-0.00045944965 -1.0946471e-05 0.00043111522)
(-0.00040533893 -2.2138289e-05 0.0003801178)
(-0.00033477806 -1.4612929e-05 0.00032373276)
(-0.00042066833 -1.8196479e-05 0.00039773868)
(-0.00040397468 -1.7175228e-05 0.00038630827)
(-0.00043436547 -1.9472477e-05 0.00042865331)
(-0.0001067339 5.113948e-05 6.5460968e-05)
(-0.00021876786 1.5129843e-05 0.00016902884)
(-0.00040372907 -1.6396194e-05 0.00038734131)
(-0.00042504527 -1.9247674e-05 0.00041169884)
(0.00019538435 -4.4140285e-06 -0.00018718793)