/*--------------------------------*- C++ -*----------------------------------*\
  =========                 |
  \\      /  F ield         | OpenFOAM: The Open Source CFD Toolbox
   \\    /   O peration     | Website:  https://openfoam.org
    \\  /    A nd           | Version:  11
     \\/     M anipulation  |
\*---------------------------------------------------------------------------*/
FoamFile
{
    format      ascii;
    class       volVectorField;
    location    "1098";
    object      wallShearStress;
}
// * * * * * * * * * * * * * * * * * * * * * * * * * * * * * * * * * * * * * //

dimensions      [0 2 -2 0 0 0 0];

internalField   uniform (0 0 0);

boundaryField
{
    wall-fluid_domain
    {
        type            calculated;
        value           nonuniform List<vector> 
42113
(
(-1.1364833e-06 -5.0798096e-07 2.8566026e-06)
(-6.2348487e-07 -9.1394687e-08 1.4378126e-06)
(-8.0432544e-07 -7.9968667e-07 2.3352396e-06)
(-1.7619649e-06 2.9039073e-07 2.37038e-06)
(-1.2501362e-06 -1.0160785e-07 1.8403271e-06)
(-9.3149539e-07 -1.4570263e-07 1.5043504e-06)
(-1.56965e-06 6.074659e-08 1.8967858e-06)
(-1.3815176e-06 -3.2983789e-07 2.684697e-06)
(-8.957569e-07 -1.034383e-08 1.301475e-06)
(-1.5637282e-06 6.9740416e-08 1.6379949e-06)
(-1.6006694e-06 -1.1200864e-07 2.0283952e-06)
(-1.1776681e-06 -6.6521471e-07 2.3946934e-06)
(-1.9571607e-06 4.3762588e-07 2.1348424e-06)
(-1.0097023e-06 -1.0699603e-07 1.6475677e-06)
(-1.8874192e-06 3.0889228e-07 1.8694538e-06)
(-4.5204609e-07 -3.5610223e-07 1.6812628e-06)
(-5.2622561e-07 -1.2318816e-07 1.7369257e-06)
(-8.7519617e-07 -1.10452e-07 1.2728285e-06)
(-9.6527393e-07 -1.6613423e-07 1.4483065e-06)
(-9.3721342e-07 -6.9323405e-08 1.3840583e-06)
(-2.2546931e-06 2.1310169e-07 2.8434932e-06)
(-1.7599353e-06 -1.1906314e-06 3.7823102e-06)
(-3.3705493e-06 -1.3740859e-06 2.6739683e-06)
(-4.6617537e-07 -1.1185184e-07 1.8390311e-06)
(-6.3163748e-07 9.0755436e-09 1.2463608e-06)
(-1.8840989e-06 3.25039e-07 2.5306305e-06)
(-1.4267429e-06 -2.6788644e-07 2.0985595e-06)
(-2.4461826e-06 -8.2634012e-08 3.9356976e-06)
(-8.1377687e-07 -1.2495555e-07 1.4516323e-06)
(-7.9620098e-07 -2.3322437e-08 1.3630942e-06)
(-1.5564714e-06 9.3087548e-08 1.666685e-06)
(-1.027803e-06 6.896522e-08 1.057391e-06)
(-2.0276737e-06 -4.2515618e-08 3.7423679e-06)
(-1.4624584e-06 -2.7220575e-07 2.592201e-06)
(-8.6685986e-07 7.6248747e-08 1.1357326e-06)
(-8.8140612e-07 3.6572996e-08 1.5802283e-06)
(-2.5991375e-06 -1.9170532e-07 1.3529062e-06)
(-1.7318606e-06 -2.2932447e-07 3.1577651e-06)
(-6.6828607e-07 -1.0070656e-07 1.3227001e-06)
(-1.1135898e-06 -1.7010271e-07 1.2955899e-06)
(-1.0621399e-06 -9.1578726e-08 1.1463645e-06)
(-1.966122e-06 -2.3348328e-07 3.5633032e-06)
(-8.3940649e-07 5.1335442e-08 1.1556203e-06)
(-3.4406189e-06 -2.1500717e-07 3.2830004e-06)
(-1.8501046e-06 3.9897431e-08 2.3408712e-06)
(-9.1887471e-07 -4.5387567e-07 1.9119348e-06)
(-1.0768219e-06 -4.0409614e-08 1.1344719e-06)
(-7.4582619e-07 -2.5974335e-07 1.4924672e-06)
(-8.5921731e-07 -3.3813269e-08 1.2454549e-06)
(-6.7934811e-07 -1.0887464e-07 1.4056693e-06)
(-2.7863652e-06 -1.4290618e-06 3.1259941e-06)
(-1.3388132e-06 -1.1422102e-07 1.6437452e-06)
(-9.3252369e-07 8.0033749e-08 1.3752012e-06)
(-1.5292325e-06 -6.1350444e-07 2.0949709e-06)
(-2.2568298e-06 1.4318482e-06 3.8033813e-06)
(-7.8442946e-07 -4.0367751e-08 1.2069837e-06)
(-1.5859253e-06 6.8848542e-07 2.2761502e-06)
(-2.17259e-06 -3.7368271e-08 4.0844602e-06)
(-8.9606243e-07 3.3871883e-09 1.045922e-06)
(-8.1577839e-07 -4.1481553e-08 1.0988003e-06)
(-1.8735289e-06 -5.0011462e-07 3.2521869e-06)
(-7.2158281e-07 7.507943e-08 1.5053998e-06)
(-7.3048647e-07 -3.3788017e-07 1.8568931e-06)
(-5.6820214e-07 -8.1913254e-08 1.4244757e-06)
(-6.4116342e-07 -8.1975912e-08 1.2189516e-06)
(-2.120973e-06 4.9633039e-07 3.224707e-06)
(-2.386668e-06 2.5054216e-07 4.1997861e-06)
(-5.7232626e-07 -7.6501043e-08 1.5674945e-06)
(-7.4417524e-07 -2.085834e-08 1.2211621e-06)
(-2.5733676e-06 1.4459408e-06 4.0623023e-06)
(-3.1890299e-06 9.2044848e-07 4.4994253e-06)
(-1.7872376e-06 -5.2822911e-08 3.1877501e-06)
(-1.049838e-06 7.0737912e-08 1.1250267e-06)
(-7.0170002e-07 -1.7366521e-08 1.22963e-06)
(-7.1744376e-07 -7.0071085e-09 1.0177114e-06)
(-2.0706244e-06 -3.5691815e-07 3.2183122e-06)
(-2.0374117e-06 1.2918805e-07 3.070951e-06)
(4.5117843e-07 -8.2759025e-11 -8.3823255e-07)
(-7.4370818e-07 -8.6404679e-09 1.0105355e-06)
(-2.8052292e-06 3.9230891e-08 2.8390013e-06)
(-8.3556933e-07 2.1264485e-08 1.2514663e-06)
(-1.6059321e-06 -2.815524e-07 2.5202764e-06)
(-2.0002121e-06 8.1478835e-07 3.4162687e-06)
(-5.0767218e-07 -1.2197151e-07 1.2957294e-06)
(4.1911192e-07 -2.7542528e-08 -6.4900095e-07)
(-1.4157289e-06 -3.8015053e-07 2.9664888e-06)
(-1.6073512e-06 2.7490579e-07 2.1884448e-06)
(2.2938352e-07 -9.7135836e-08 -5.7176725e-07)
(-4.5251481e-07 -1.4701692e-07 1.3416719e-06)
(-2.1855357e-06 1.0340348e-07 2.9331619e-06)
(-1.6684336e-06 -1.9538842e-08 2.4295184e-06)
(-1.9487009e-06 2.4600101e-07 2.1863479e-06)
(-2.8398853e-06 -1.8697208e-06 2.2446047e-06)
(-1.1082356e-06 -6.7700023e-07 2.7472065e-06)
(-1.5588376e-06 -1.5884806e-07 2.5115314e-06)
(-1.0798828e-06 -2.6598917e-08 1.3964624e-06)
(-1.8214178e-06 4.1089232e-07 2.3056355e-06)
(-4.564285e-06 -9.6676787e-07 4.7949907e-06)
(-1.7599965e-06 -1.5059012e-07 1.9314432e-06)
(-8.9375292e-07 -4.9496245e-08 1.2558287e-06)
(-2.430892e-06 3.4243099e-07 5.0895225e-06)
(-2.6091438e-06 2.1727094e-07 4.1113956e-06)
(-5.9743215e-07 -2.3035028e-08 1.067587e-06)
(-5.4136581e-07 -1.3058068e-07 1.2994067e-06)
(-2.0618788e-06 -9.758059e-07 1.5614083e-06)
(-2.3250117e-06 4.2027797e-07 4.0595491e-06)
(-1.6732547e-06 1.8132719e-07 2.5165091e-06)
(-1.7950514e-06 -2.8512188e-07 3.3206139e-06)
(-1.0442117e-06 7.4406816e-08 1.0836008e-06)
(-7.2378869e-07 -4.2355329e-08 1.0382521e-06)
(-4.9253535e-06 -2.6125757e-07 5.8270423e-06)
(-2.7959865e-06 -2.469802e-07 4.2963168e-06)
(1.6542582e-07 4.3408131e-08 -1.0098886e-06)
(-2.1393477e-06 1.726248e-07 3.1936025e-06)
(-5.5527614e-06 1.2302468e-07 7.7190679e-06)
(-1.7162671e-06 -1.1305998e-07 3.4866305e-06)
(-2.1526113e-06 4.3101182e-07 3.1476765e-06)
(-1.9010827e-06 -2.6896681e-07 3.3697923e-06)
(-3.1400812e-06 5.3937387e-07 1.8489332e-06)
(-5.8205974e-06 7.7076197e-07 7.3620163e-06)
(-6.2778681e-07 -3.7046951e-08 1.2816484e-06)
(-2.1033221e-06 4.66248e-07 2.3884322e-06)
(-1.5760856e-06 -4.4251849e-07 2.3086652e-06)
(-1.9514935e-06 2.7482707e-07 2.8759864e-06)
(-1.6663395e-06 9.3996807e-07 3.0436404e-06)
(-1.0312311e-06 -5.931602e-08 9.6620723e-07)
(-2.2923292e-06 8.3360386e-07 4.692287e-06)
(-2.9662382e-06 -4.2759604e-08 5.215059e-06)
(-3.483043e-06 -5.4251353e-07 5.5432034e-06)
(-2.2095981e-06 7.8608458e-07 2.4616797e-06)
(-1.6841981e-06 -5.0744396e-07 3.220015e-06)
(-7.144512e-07 -8.0338679e-09 1.5634571e-06)
(-1.979122e-06 -3.0470993e-07 3.450341e-06)
(-1.8379856e-06 -5.101614e-07 3.7072978e-06)
(-2.4777148e-06 8.767118e-08 2.655215e-06)
(-2.974576e-06 -4.4616012e-07 5.2500068e-06)
(-1.2787648e-06 -9.4480549e-07 2.8890607e-06)
(-3.5109303e-06 2.2886115e-07 5.0589586e-06)
(-7.2120789e-07 6.7019811e-08 1.6101491e-06)
(-2.6074125e-06 1.1413185e-07 4.6986782e-06)
(-2.8784931e-06 -3.066889e-07 3.5215461e-06)
(-1.0908802e-06 2.6346803e-10 1.3461664e-06)
(-1.999166e-06 -3.0739617e-07 5.5882115e-06)
(-1.7958696e-06 -1.6450811e-08 2.2675255e-06)
(-1.0013693e-06 -5.7742024e-07 2.8413858e-06)
(-2.091733e-06 8.0261665e-09 3.5519589e-06)
(-1.6441635e-06 -5.6429693e-08 2.4359472e-06)
(-1.5927976e-06 -2.0694897e-07 2.7588944e-06)
(2.9856032e-07 -1.0627376e-08 -1.1554179e-06)
(-3.4232618e-06 -2.8712346e-07 3.8811041e-06)
(-2.1887198e-06 1.1333319e-08 2.8697319e-06)
(6.0843239e-07 -3.9926196e-08 -8.2612183e-07)
(-3.1622279e-06 -1.5778347e-07 4.5006324e-06)
(-1.7790767e-06 -5.7688282e-07 3.60181e-06)
(-2.5107717e-06 9.4327133e-07 5.0395957e-06)
(-4.6350398e-06 -1.7465426e-06 4.8115757e-06)
(-1.7797975e-06 3.3787074e-07 3.5776842e-06)
(-2.0538174e-06 -5.6271214e-08 3.2731949e-06)
(-3.5182642e-06 4.4932364e-07 5.4707526e-06)
(-2.2596722e-06 -3.9796319e-07 3.8527918e-06)
(-1.5250939e-06 2.7106308e-07 2.6777223e-06)
(-2.5111707e-06 -2.0241334e-07 3.6589523e-06)
(-2.1160177e-06 -5.1898511e-07 4.0805885e-06)
(-2.4766148e-06 -1.5427011e-06 3.7471256e-06)
(-2.5952425e-06 -6.7458427e-09 3.9702844e-06)
(-2.6791777e-06 -5.0767505e-07 4.1193117e-06)
(-2.0627279e-06 5.1809729e-07 3.6181468e-06)
(-1.9209975e-06 1.0449107e-07 2.7381571e-06)
(-3.2847747e-06 -2.0929679e-07 4.9845533e-06)
(-2.4325071e-06 2.924468e-07 3.6200904e-06)
(-2.0624106e-06 -1.1914693e-06 3.404753e-06)
(-2.644295e-06 8.9438779e-07 3.0573222e-06)
(-2.1886333e-06 4.8025734e-07 3.7690564e-06)
(-1.9280202e-06 5.9515317e-07 2.2446911e-06)
(-2.2176596e-06 -2.4062e-07 3.4416912e-06)
(-2.3865255e-06 4.5564182e-07 3.2360776e-06)
(-2.5692388e-06 -5.7693426e-08 4.2409233e-06)
(-2.3789227e-06 6.7337839e-07 4.1063706e-06)
(-2.4938744e-07 -2.377701e-07 -7.5457479e-08)
(-2.6027685e-06 -2.7564013e-08 3.4071604e-06)
(-2.0267698e-06 -1.8479619e-07 2.9468291e-06)
(-1.2807598e-06 -2.8512062e-07 2.5843006e-06)
(-3.0345789e-06 4.1257798e-07 4.4077475e-06)
(-3.4557399e-06 -7.1383317e-07 4.710755e-06)
(-2.3499527e-06 1.1163896e-06 3.4806622e-06)
(-1.7018536e-06 -2.3899226e-07 2.5025081e-06)
(-6.1961115e-07 1.1253508e-07 1.3884766e-06)
(-2.2304385e-06 -9.5633197e-07 3.9455926e-06)
(-7.3590497e-07 7.6144595e-08 1.2470609e-06)
(-2.021507e-06 -4.1278059e-07 3.0622664e-06)
(-6.669937e-07 -1.5424904e-08 1.7666964e-06)
(-2.3934801e-06 -3.9521375e-07 3.6738092e-06)
(-2.076627e-06 3.8811215e-07 2.3825808e-06)
(-5.858436e-07 8.3704895e-08 1.3133791e-06)
(-2.8826116e-06 -1.1010268e-06 4.253699e-06)
(-2.2785949e-06 8.408721e-07 3.2925586e-06)
(-2.447073e-06 -1.0975261e-07 3.544491e-06)
(-1.6957381e-06 -3.9695041e-07 2.8675546e-06)
(-2.7972952e-06 5.8392768e-08 4.7808102e-06)
(-1.7983084e-06 3.1166242e-07 3.0222739e-06)
(-3.7088201e-07 -2.8993781e-08 1.5493252e-06)
(-2.2031918e-06 5.792476e-07 3.5331164e-06)
(-2.2612275e-06 -8.3443562e-08 4.0349158e-06)
(-4.4539435e-06 -3.8428248e-07 5.0380938e-06)
(-2.4899542e-06 1.1989113e-07 7.2167621e-06)
(-2.4970759e-06 2.6591367e-07 3.0100161e-06)
(-2.7621239e-06 3.4325173e-08 2.4290169e-06)
(-1.5630233e-06 -2.5999113e-07 2.8124619e-06)
(6.119828e-07 -4.2327427e-08 -7.9713716e-07)
(-1.6381039e-06 -1.0726746e-07 2.7192189e-06)
(-2.9867562e-06 1.1392153e-08 4.422901e-06)
(-2.9162441e-06 -4.3516046e-07 5.2244644e-06)
(-2.7657286e-06 -1.61417e-07 4.352941e-06)
(-6.1060776e-07 7.9050166e-08 1.8518008e-06)
(-9.2318321e-07 7.5990825e-08 1.4301319e-06)
(-2.6536543e-06 -1.3740678e-07 3.9190362e-06)
(2.4909076e-07 -1.6405468e-07 -3.320797e-07)
(-1.3853253e-06 4.9094938e-08 1.5379959e-06)
(-2.7242242e-06 -7.6776659e-07 3.7342628e-06)
(-5.7414103e-07 1.3767602e-07 1.2163872e-06)
(-1.0100776e-06 8.4937157e-08 1.591468e-06)
(-9.084364e-06 6.6007102e-08 1.6030371e-05)
(4.5129735e-07 -1.4195717e-08 -8.9413201e-07)
(-1.7963364e-06 8.8881652e-08 2.5861098e-06)
(-3.4826393e-06 1.4463193e-07 5.0560676e-06)
(-1.1931971e-06 -5.5566436e-09 1.6773664e-06)
(-1.6950352e-06 3.8514176e-07 4.0098841e-06)
(-1.1270227e-06 4.3382032e-08 1.3063093e-06)
(-1.0335258e-06 -3.4195237e-07 1.9047348e-06)
(-1.5003489e-06 3.3740294e-09 2.3641302e-06)
(-9.7499511e-07 -2.7641209e-07 1.673187e-06)
(-2.2961234e-06 -8.9940505e-08 4.4744731e-06)
(-2.4447805e-06 1.2674777e-07 3.8962365e-06)
(-1.3119534e-06 -1.1746108e-07 2.1788301e-06)
(-2.8502391e-06 1.1549617e-07 4.0489276e-06)
(-2.4548631e-06 -2.1693145e-07 6.7916376e-07)
(-2.2615207e-06 -1.4320054e-07 4.1896331e-06)
(-1.622006e-06 -1.5588509e-07 2.1121818e-06)
(-1.214255e-06 -4.8400878e-07 2.1968035e-06)
(-2.914748e-06 -1.357586e-07 4.3167231e-06)
(-1.3031844e-06 -4.4248938e-07 3.2816059e-06)
(-2.6518218e-06 3.3015677e-08 4.0316565e-06)
(-4.3268435e-06 4.4978985e-07 4.9773613e-06)
(-3.5155326e-06 2.0709396e-07 4.7219875e-06)
(-1.3603678e-06 -6.022429e-07 2.1987651e-06)
(-7.6541431e-07 1.0180396e-07 1.5841634e-06)
(-2.182184e-06 1.1307104e-07 2.6117594e-06)
(-1.3247497e-06 -2.1999593e-07 2.6334973e-06)
(-1.2395953e-06 5.2585856e-08 1.3818582e-06)
(-2.3552482e-06 -3.4688666e-07 3.9755766e-06)
(-7.384191e-07 1.8556687e-07 1.8780728e-06)
(-1.7601902e-06 3.0681008e-07 2.6439233e-06)
(9.5077196e-07 -7.1423531e-08 -9.390734e-07)
(-2.0054479e-06 4.33024e-07 2.2856505e-06)
(-3.2421552e-06 -9.0055595e-08 5.2821712e-06)
(-1.6482926e-06 1.6687116e-08 2.3082741e-06)
(-7.6855971e-07 5.4555421e-08 1.3795056e-06)
(-1.3998606e-06 -1.5496266e-08 2.663386e-06)
(-3.0024652e-06 1.9395628e-07 4.2493525e-06)
(-1.4170122e-06 -2.804801e-07 2.6636814e-06)
(-2.5989094e-06 1.9793249e-07 1.8266992e-06)
(-1.0622074e-06 -2.5202185e-08 1.0111139e-06)
(-1.9500467e-06 -4.0005588e-07 4.3569043e-06)
(-1.1631216e-06 -4.2635442e-07 2.8686648e-06)
(-9.7272301e-07 5.528682e-08 1.049114e-06)
(-2.2856426e-06 -1.8757326e-07 4.3886118e-06)
(-1.1683384e-06 -1.6818451e-07 1.5275229e-06)
(-1.3110327e-06 -3.6836529e-08 2.7642795e-06)
(5.0240955e-07 -2.6548859e-08 -9.182723e-07)
(-9.1891578e-06 1.1235135e-06 1.6421776e-05)
(-1.8468275e-06 2.5794957e-07 2.2113595e-06)
(-1.0834171e-06 -7.1954602e-08 1.215209e-06)
(-2.7297207e-06 -1.0861556e-07 5.2489166e-06)
(6.5001885e-07 -3.68653e-09 -6.9941225e-07)
(-7.4762057e-07 1.3541901e-08 1.2005272e-06)
(4.6957482e-07 4.6770683e-09 -8.1796454e-07)
(-5.1474724e-06 -1.006397e-06 5.7006883e-06)
(-1.0834181e-06 6.5329627e-08 1.3608561e-06)
(-4.9037264e-06 -8.0516365e-07 4.3096849e-06)
(-1.6669494e-06 -1.2206804e-07 2.5617126e-06)
(-3.9369154e-06 -6.7180315e-07 5.1290017e-06)
(-3.3311389e-06 -3.2756716e-07 4.6771588e-06)
(-8.3345128e-07 1.6203526e-07 1.6416504e-06)
(-5.3415439e-07 -2.5099346e-07 1.2975641e-06)
(-6.0548286e-07 -4.0487055e-07 1.519915e-06)
(-1.4779586e-06 -1.3124585e-07 2.5604594e-06)
(-5.099377e-07 2.0597967e-08 1.1497289e-06)
(-8.4173067e-07 -1.4805544e-07 1.3339455e-06)
(-4.0228688e-06 -2.2809552e-07 6.0992558e-06)
(-1.4770187e-06 -2.2731882e-07 2.5817156e-06)
(-1.0626979e-06 -4.0702421e-07 2.7951691e-06)
(-1.2673636e-06 -1.6638321e-07 2.4610682e-06)
(-1.2111423e-06 -2.941495e-07 2.2189949e-06)
(-1.6735383e-06 3.2106909e-08 2.3845248e-06)
(-1.2492022e-06 -9.2691092e-07 2.9942622e-06)
(-1.5837105e-06 1.5035568e-07 1.9924875e-06)
(-1.3509446e-06 -9.3307819e-08 1.9762494e-06)
(-3.2073184e-06 -2.3563441e-08 2.6587653e-06)
(-2.8677004e-06 -2.8056881e-08 4.5005184e-06)
(-8.21323e-07 1.5874863e-07 1.4810524e-06)
(-3.8292029e-07 -3.0854546e-07 1.2513398e-06)
(-1.8699054e-06 -2.2616515e-07 2.8086761e-06)
(-1.1090308e-06 3.7230147e-08 1.5939008e-06)
(-2.9618523e-06 -1.7249697e-07 2.8976549e-06)
(-9.3437577e-06 6.890408e-07 1.7124968e-05)
(-2.3980086e-07 -5.7865717e-09 1.9467532e-07)
(-8.057949e-07 2.5131646e-09 1.4038024e-06)
(-1.3381209e-06 -5.2201107e-08 1.219575e-06)
(-3.368011e-06 7.5017766e-07 4.7065787e-06)
(-2.0548699e-07 -1.2209954e-08 3.6366353e-07)
(-7.9811655e-07 2.0888946e-07 1.3438266e-06)
(-2.8381981e-06 3.398905e-08 4.35768e-06)
(-1.803894e-07 -7.516865e-08 4.4920371e-07)
(-4.2318137e-07 -4.836727e-07 1.1275355e-06)
(-6.5825893e-07 1.21135e-07 1.4634199e-06)
(-2.5661235e-06 -6.2366869e-08 2.4215978e-06)
(-8.9546545e-07 -3.1339254e-08 1.2291218e-06)
(-2.4601306e-06 -5.1537874e-07 2.2557826e-06)
(-2.5328568e-07 1.17754e-07 1.5247656e-06)
(-4.4118067e-06 8.4090251e-08 5.6785119e-06)
(-3.5759183e-07 1.7018921e-07 1.5561461e-06)
(-1.0092964e-06 1.1315008e-07 1.738275e-06)
(-6.3646805e-07 1.820124e-08 1.3814365e-06)
(-9.897229e-07 2.3119781e-07 1.5380066e-06)
(-5.4944804e-07 2.4240818e-07 1.6997983e-06)
(-4.0046555e-06 -5.0170484e-07 1.375341e-06)
(-1.0467593e-06 7.2162617e-08 1.5047922e-06)
(-1.0608609e-06 9.8419708e-08 1.1435395e-06)
(-9.409737e-07 6.1361718e-08 1.2619217e-06)
(-1.0005193e-06 -7.0044584e-09 1.207137e-06)
(-8.7617641e-07 2.8366546e-09 1.5427415e-06)
(-1.7617463e-06 5.0844651e-07 5.1499993e-06)
(-2.7438389e-06 -1.2763198e-07 5.461442e-06)
(-7.1463245e-07 2.1073338e-07 1.7027336e-06)
(-3.0892943e-06 -2.3821473e-07 4.535312e-06)
(-8.3980232e-07 2.3606112e-07 1.6098713e-06)
(-6.6502461e-07 1.4267303e-07 1.5161886e-06)
(-9.6629054e-07 -5.5442205e-08 9.9208784e-07)
(-1.4408402e-06 -5.4101565e-08 1.2478401e-06)
(-9.9917945e-07 1.5730519e-07 1.4680934e-06)
(-1.3416142e-06 2.5912925e-08 1.2048384e-06)
(-2.9151055e-06 1.9292049e-07 3.6919069e-06)
(-1.1260919e-06 1.8571953e-08 1.0981864e-06)
(-2.4923674e-06 1.5939075e-07 2.7848172e-06)
(-6.2350477e-07 1.9169713e-07 2.0145815e-06)
(-2.1589612e-06 -8.6428729e-08 2.7034661e-06)
(-7.9188918e-07 1.0099431e-07 1.5577189e-06)
(-4.9536274e-07 1.6946654e-07 1.6983512e-06)
(-1.1335548e-06 1.0772018e-07 1.2394258e-06)
(-6.8155244e-07 1.0781671e-07 1.4190374e-06)
(-1.0315521e-06 2.029426e-07 1.4361285e-06)
(-9.2457756e-07 2.3016043e-07 1.3621948e-06)
(-4.0471731e-07 8.405591e-08 1.4435182e-06)
(-1.5366412e-06 2.4944535e-08 2.3457581e-06)
(-8.7611053e-07 1.0447817e-07 1.3665262e-06)
(-1.0843636e-06 2.0433667e-07 1.5309932e-06)
(-7.9647107e-07 1.961562e-07 1.6445367e-06)
(-9.0536603e-07 4.063707e-08 1.0630589e-06)
(-1.6585914e-06 -2.5975469e-08 1.7639953e-06)
(-9.7110461e-07 2.3557386e-07 1.7094128e-06)
(-1.367164e-06 -1.5109938e-07 1.2708743e-06)
(-4.7685444e-06 9.9495812e-07 4.6069104e-06)
(-1.328435e-06 2.9037282e-08 1.4127273e-06)
(-1.1330105e-06 7.5136317e-09 1.2435179e-06)
(-1.1782924e-06 1.1961696e-07 1.615114e-06)
(-1.6625957e-06 -1.0579137e-07 2.5129498e-06)
(-4.9118701e-07 1.4174956e-07 1.4912186e-06)
(-9.3743248e-07 9.3869643e-08 1.2863879e-06)
(-2.9069366e-06 1.0669071e-06 4.2878832e-06)
(-2.8175002e-06 -2.5284783e-07 4.8553672e-06)
(-9.2950977e-07 1.5351748e-07 1.7067064e-06)
(-7.8669241e-07 1.7832064e-07 1.8778805e-06)
(-1.1495604e-06 7.7880637e-08 1.5955311e-06)
(-1.3240735e-06 -2.3516859e-08 1.5752951e-06)
(-9.8174843e-07 2.4800996e-07 1.8529232e-06)
(-7.6761171e-07 5.2076906e-07 2.0437786e-06)
(6.6111837e-07 -4.6480791e-08 -7.3940207e-07)
(-1.0857934e-06 6.4622352e-08 1.9346779e-06)
(-9.8310962e-07 2.1144348e-07 1.8192313e-06)
(-4.4846023e-07 2.1911245e-07 2.0820296e-06)
(-1.2518848e-06 1.0173974e-07 1.673421e-06)
(-1.5342429e-06 2.1359051e-08 1.4964263e-06)
(-7.3361076e-07 2.2410739e-07 1.6712223e-06)
(-6.4816143e-07 1.1817469e-08 1.2377665e-06)
(-7.1535778e-07 2.7205364e-07 1.8708026e-06)
(-1.2206765e-06 1.4630475e-07 1.539964e-06)
(-1.8028308e-06 -3.0449267e-08 1.7774036e-06)
(-1.144222e-06 2.3280172e-07 2.1186676e-06)
(-8.9688538e-07 1.0234815e-07 1.0581425e-06)
(-1.0980223e-06 5.5227605e-07 2.1520188e-06)
(-9.3785101e-07 1.3761804e-07 1.1572727e-06)
(-1.405033e-06 9.9635937e-08 1.7912504e-06)
(-1.2176177e-06 2.1950659e-07 1.7997062e-06)
(-1.0436012e-06 3.5459657e-07 1.9002026e-06)
(-8.1488177e-07 -4.1694801e-09 1.1913922e-06)
(-8.0837623e-07 3.4595284e-07 1.8642379e-06)
(1.0062633e-06 6.1484262e-08 -8.7859686e-07)
(-1.1057748e-06 1.9532455e-07 1.9364501e-06)
(-2.3137147e-06 7.7999927e-07 2.3064878e-06)
(-3.9532365e-06 1.0371951e-06 4.8602658e-06)
(-1.1339362e-06 1.1310843e-07 1.3978934e-06)
(-1.1597841e-06 1.2230091e-07 1.2586658e-06)
(-6.351282e-07 -4.3744608e-07 2.0744673e-07)
(-3.1104526e-07 -5.2081556e-07 3.6839432e-07)
(-1.8446932e-06 3.5086742e-07 2.7709485e-06)
(-1.1320493e-06 3.6471442e-08 1.8449034e-06)
(-8.951032e-07 5.7135313e-08 9.1224179e-07)
(-6.4131138e-07 6.4532807e-08 1.2151921e-06)
(-1.400784e-06 -8.9790717e-08 1.3907198e-06)
(-5.4597343e-07 9.5215261e-08 1.2880073e-06)
(-1.0699897e-06 1.2928154e-07 1.8458788e-06)
(-1.3755971e-06 1.725178e-07 1.9579085e-06)
(-1.4567862e-06 -1.7712313e-07 1.5643675e-06)
(-1.3200585e-06 1.5330861e-07 2.0511817e-06)
(-1.052391e-06 3.3356668e-07 2.0379566e-06)
(-2.0866269e-06 -1.0560546e-06 3.4709438e-06)
(-1.23318e-06 -2.6394562e-08 1.6852714e-06)
(-3.4969912e-06 -8.2209487e-07 6.1409958e-06)
(-1.1591473e-06 2.7524778e-07 1.9909457e-06)
(-5.7150831e-07 2.3749946e-07 1.5368588e-06)
(-8.1653482e-07 3.4789389e-07 1.915107e-06)
(-1.3784933e-06 1.5567724e-07 1.8887718e-06)
(6.1206038e-09 -6.4518423e-08 -6.9626041e-08)
(-7.6363419e-07 3.4075817e-07 2.0544009e-06)
(-8.198507e-07 2.0320125e-08 8.9470574e-07)
(-5.1124619e-07 -2.4822307e-07 1.1464903e-07)
(-1.0806017e-06 1.0554569e-07 1.7766828e-06)
(-1.6643236e-06 2.4670643e-08 2.2939285e-06)
(-1.1815914e-06 -4.0341186e-07 2.9513436e-06)
(-1.4841699e-06 3.6158787e-08 1.9696201e-06)
(-1.1283198e-06 2.6393068e-07 1.9808812e-06)
(-1.0245175e-06 -7.8616996e-09 1.6800392e-06)
(-1.5587742e-06 -2.7205831e-07 1.5726081e-06)
(-1.2632713e-06 -1.5199312e-07 3.0706708e-06)
(-1.6654639e-06 -3.5255707e-07 1.6920133e-06)
(-3.4820402e-06 -1.4234815e-08 4.2193605e-06)
(-3.308316e-06 1.5071013e-07 5.2496003e-06)
(-1.0409091e-06 1.700465e-07 1.9103742e-06)
(-3.5592175e-06 -8.1117901e-08 5.1682513e-06)
(-1.3816921e-06 -7.2755649e-08 1.9812945e-06)
(-1.9009788e-06 -6.5920296e-07 4.3267821e-06)
(-7.9885011e-07 -5.4679923e-07 2.632341e-06)
(-1.313673e-06 -8.6172741e-08 1.6100073e-06)
(-2.8807079e-06 7.644289e-08 4.6902056e-06)
(-1.733298e-06 1.5494393e-07 1.6839695e-06)
(-1.7837905e-06 -2.7954423e-07 3.9932352e-06)
(-1.6142373e-06 1.3005764e-07 2.3450664e-06)
(-1.3119276e-06 2.1532883e-07 1.7882908e-06)
(-1.8060694e-06 6.9435134e-08 4.4357405e-06)
(6.7302255e-07 7.5087567e-09 -6.245068e-07)
(-3.3710447e-06 3.5170541e-07 4.5455329e-06)
(-1.5437582e-06 -4.9729586e-08 1.6155612e-06)
(-1.1838034e-06 4.9731419e-07 2.2963937e-06)
(-7.6249407e-07 4.1450981e-07 2.4915936e-06)
(-2.525948e-06 -3.5779099e-07 4.003758e-06)
(-1.6677363e-06 -8.324782e-08 1.8458601e-06)
(-1.6811591e-06 3.0241188e-07 2.4195974e-06)
(-1.7484798e-06 -3.9050068e-07 1.5805623e-06)
(-2.4904076e-06 1.3874707e-07 3.8301879e-06)
(-1.7017001e-06 5.829421e-08 2.3734078e-06)
(5.4168456e-08 -8.2618414e-08 -1.13013e-07)
(-1.7959107e-06 -1.5140948e-07 2.0145874e-06)
(-8.1486803e-06 1.4423214e-06 1.4006014e-05)
(-2.7268609e-06 -1.4805522e-06 3.0031681e-06)
(-2.6358496e-06 -1.3399588e-07 3.9933549e-06)
(-2.481659e-06 4.267641e-07 3.5831884e-06)
(-9.2368429e-07 4.4179546e-07 2.1492627e-06)
(-1.7162675e-06 -2.7773497e-07 1.9413826e-06)
(-1.3561512e-06 8.9265794e-07 2.5780016e-06)
(-3.0880218e-06 4.1085454e-07 4.0576085e-06)
(-2.0148212e-06 1.4392548e-06 4.2696004e-06)
(-2.7257837e-06 1.0003824e-06 3.458558e-06)
(-1.8652811e-06 -8.4488604e-07 3.6973062e-06)
(-1.1576783e-06 2.1551025e-07 1.7266956e-06)
(-1.3763408e-06 7.4300951e-07 2.6850594e-06)
(-1.1108133e-06 4.6162344e-07 2.5273483e-06)
(-1.7824247e-06 -2.9788941e-07 1.7734416e-06)
(-2.0189276e-06 -4.0782547e-07 2.0296511e-06)
(-1.9436456e-06 -1.2064836e-07 2.2087457e-06)
(-9.30522e-07 5.2720256e-07 2.1868846e-06)
(-1.2264582e-06 2.5534172e-07 1.8403486e-06)
(-1.6866446e-06 -2.2362734e-07 1.6521204e-06)
(-1.1593863e-06 8.9100755e-08 1.9160486e-06)
(-1.1416937e-06 2.0184146e-07 1.7764457e-06)
(-1.4780073e-06 8.7916272e-07 2.5366687e-06)
(-1.3179657e-06 2.5233614e-07 1.8560341e-06)
(-1.0517541e-06 6.9099987e-07 2.4190273e-06)
(-1.581348e-06 3.7963894e-08 2.046235e-06)
(-1.8368713e-06 -7.6473703e-08 2.4725293e-06)
(-1.5956677e-06 -5.2485501e-08 2.0514125e-06)
(-1.2603327e-06 4.4688469e-07 2.285227e-06)
(-1.3958186e-06 -1.3830146e-08 1.930154e-06)
(-1.4423124e-06 7.9659625e-09 1.7969049e-06)
(-1.7811992e-06 3.421145e-08 1.7230383e-06)
(-1.126135e-06 2.601168e-07 2.100555e-06)
(-1.2906788e-06 5.0421637e-07 2.4245559e-06)
(-1.2034706e-06 3.0101065e-07 2.2031144e-06)
(-1.1270269e-06 6.0223039e-07 2.5465413e-06)
(-9.3848651e-07 5.1602727e-07 2.3744558e-06)
(-1.7931579e-06 -1.212662e-07 1.9402703e-06)
(-1.6875428e-06 1.7253465e-07 2.3444343e-06)
(-1.8953332e-06 -2.6046921e-07 2.0882458e-06)
(-1.2522083e-06 5.1533909e-07 2.6871308e-06)
(-1.2633333e-06 5.0718622e-07 2.7478682e-06)
(-1.766446e-06 9.0263907e-08 2.124299e-06)
(-1.5027738e-06 1.2364425e-07 1.8889461e-06)
(-2.1005835e-06 -1.2113706e-07 2.2614693e-06)
(-1.3252834e-06 -1.8385449e-07 2.6977332e-06)
(-1.6065119e-06 2.6003605e-07 2.4674336e-06)
(-1.1573169e-06 5.8819456e-07 2.1429008e-06)
(-1.8741824e-06 -5.2317227e-07 3.6539026e-06)
(-1.8030317e-06 3.9644297e-08 2.3980046e-06)
(-1.9049461e-06 6.6266061e-08 2.6804793e-06)
(-1.5001957e-06 1.1247166e-07 2.1990521e-06)
(-1.2149986e-06 -2.1953515e-07 2.7910456e-06)
(-1.7578822e-06 -3.9311223e-07 2.1022291e-06)
(-1.8447981e-06 1.0253194e-07 2.2110868e-06)
(-1.2653397e-06 -1.7303503e-07 2.1768955e-06)
(-1.0995358e-06 7.6123601e-07 2.6152891e-06)
(-1.7135231e-06 1.6425977e-07 2.3155821e-06)
(-1.6445349e-06 -3.444512e-07 2.15084e-06)
(-1.7693094e-06 3.1246034e-07 2.8625047e-06)
(-9.6194797e-07 -2.4432444e-07 2.4694915e-06)
(-1.5352166e-06 7.2804858e-07 2.7023057e-06)
(-1.7201344e-06 -2.8492517e-07 2.136109e-06)
(-1.5450625e-06 5.5642657e-07 2.7923375e-06)
(-6.0924407e-07 -3.6979852e-07 1.1683717e-06)
(-9.6819086e-07 -2.8805563e-07 3.1883787e-06)
(-1.3462128e-06 4.4453765e-07 2.3219738e-06)
(-1.9734672e-06 -3.9873374e-08 2.5768535e-06)
(-1.658687e-06 4.9849282e-08 2.0898979e-06)
(-1.2637928e-06 9.7297804e-07 3.0432183e-06)
(-2.0882264e-06 -7.7532761e-08 4.2599119e-06)
(-1.752667e-06 -1.6191323e-07 2.3103456e-06)
(-1.7861616e-06 2.1062535e-07 2.5158565e-06)
(-1.7697852e-06 9.5913062e-07 3.3351507e-06)
(-4.9970262e-09 -2.2306814e-07 -3.3937768e-07)
(-1.3514661e-06 2.0501467e-07 2.038761e-06)
(-2.2054869e-06 -1.7266265e-07 2.4853351e-06)
(-1.5819305e-06 -1.0776524e-07 2.4121872e-06)
(-1.7804594e-06 2.4854822e-07 2.474109e-06)
(-1.7795756e-06 -2.1852748e-07 2.6110555e-06)
(-1.6114183e-06 7.8938378e-07 2.6127793e-06)
(-3.2835245e-06 -4.8164752e-07 3.9449525e-06)
(-1.6864699e-06 -2.5245029e-08 2.3310604e-06)
(-1.8648818e-06 -1.0689871e-07 2.3821692e-06)
(-2.1723129e-06 9.7155886e-07 3.1123159e-06)
(-2.6376266e-06 -3.2553959e-07 2.5931875e-06)
(-2.1761564e-06 3.679997e-07 3.365671e-06)
(-1.7901033e-06 6.7391237e-07 3.3105538e-06)
(-1.3520342e-07 -2.3953741e-07 3.4541254e-08)
(-2.4949055e-06 7.7549485e-07 3.5174242e-06)
(-1.9470931e-06 -5.4210149e-07 2.9797212e-06)
(-2.1466124e-06 -6.6354942e-07 2.4568605e-06)
(-2.3944981e-06 1.2938698e-07 3.3596086e-06)
(-3.6261352e-07 -1.0531534e-07 5.0689911e-07)
(-2.5333194e-07 -1.6306398e-07 7.9961026e-07)
(-1.4083041e-07 -1.2976342e-08 2.5315487e-07)
(-2.7093459e-06 -1.128697e-06 3.2412046e-06)
(-1.7904355e-06 1.0277027e-06 3.0670438e-06)
(-1.9911404e-06 2.1088418e-07 3.2138944e-06)
(-1.7585492e-06 3.9748003e-07 3.0473721e-06)
(-9.4419284e-08 -1.3102554e-08 1.1519709e-07)
(-4.5423385e-07 -2.4244482e-07 8.0485184e-07)
(-3.1782636e-08 -5.1911009e-08 1.0886318e-08)
(-2.2474386e-06 1.977469e-07 3.2004061e-06)
(2.4368414e-07 -1.3094113e-07 -8.4570281e-07)
(-2.2649038e-06 1.0287496e-06 3.3098814e-06)
(-1.8379948e-06 -2.2327979e-07 2.4273252e-06)
(-2.1153567e-06 -1.1817752e-08 2.6942087e-06)
(-1.8977876e-06 4.0215285e-07 2.9848729e-06)
(-7.0173007e-08 -3.6215582e-08 7.6856324e-08)
(-1.7950137e-06 -5.4081811e-07 2.2843611e-06)
(-6.8759033e-08 -2.5571813e-07 -1.3854079e-08)
(-2.2673183e-06 -1.2264434e-07 2.5195957e-06)
(4.3852421e-07 1.2786003e-09 -6.7522925e-07)
(-1.4223898e-07 -1.1651339e-08 2.173949e-07)
(-1.1542319e-06 -9.3730551e-08 2.603369e-06)
(8.8874683e-07 -1.6483326e-07 -1.0851064e-06)
(-2.0961917e-06 -9.2745831e-07 3.9679059e-06)
(-1.6526587e-06 2.6184776e-07 1.7506525e-06)
(-2.4508442e-06 1.8301275e-07 3.8896132e-06)
(-9.88943e-07 -1.7639579e-07 2.278824e-06)
(-1.4989736e-06 2.1905735e-07 1.8420907e-06)
(-1.0012508e-06 -3.0672645e-07 2.3069214e-06)
(-1.9594934e-06 -1.9471621e-07 3.7678282e-06)
(-1.4323084e-06 2.8955317e-07 2.0588994e-06)
(-2.447668e-06 1.2748772e-06 4.0438035e-06)
(-2.0941989e-06 -8.9957164e-07 3.1755958e-06)
(-8.1063797e-07 -2.3997216e-07 2.2497263e-06)
(-4.020623e-06 -6.8213061e-07 4.4370824e-06)
(-1.3902526e-06 -1.7566119e-07 2.4068192e-06)
(-1.1069878e-06 -8.8646696e-08 2.6034874e-06)
(-4.634163e-07 -3.25664e-07 1.0636894e-06)
(-9.1098507e-06 1.9874278e-06 1.5482508e-05)
(-2.3326934e-06 -3.5778425e-07 3.3870801e-06)
(-1.8060886e-06 -1.0036906e-06 3.1579038e-06)
(-2.0934515e-06 7.8139872e-08 3.3219758e-06)
(-1.554413e-06 -7.3106707e-07 2.3169003e-06)
(-2.1761324e-06 2.82782e-07 2.1636305e-06)
(-2.3730289e-06 -7.1331406e-07 4.5794347e-06)
(-8.5988457e-07 -1.1252687e-07 8.6208027e-07)
(-2.5078317e-06 1.439339e-07 4.1450502e-06)
(-2.2753924e-06 9.0021016e-07 3.4487773e-06)
(-1.9267555e-06 3.3112223e-08 5.1846119e-06)
(-2.285114e-06 2.1885648e-07 3.2658592e-06)
(-2.3507782e-06 -6.1985719e-07 4.283635e-06)
(-2.7244445e-06 5.2842234e-08 3.8864943e-06)
(-2.5945151e-06 1.5959106e-07 3.8006957e-06)
(-2.5503959e-06 -3.1037079e-07 4.585696e-06)
(-3.371336e-06 7.0295543e-07 4.1758261e-06)
(-2.0463901e-06 -4.2269186e-07 3.8999382e-06)
(-2.1577714e-06 -2.5425694e-07 4.3661023e-06)
(-2.7015301e-06 3.5637043e-07 3.773174e-06)
(-2.1640468e-06 -8.0510492e-07 4.5891775e-06)
(-2.1272684e-06 -8.0824856e-07 4.3513192e-06)
(-3.1451203e-06 5.3182741e-07 4.0360553e-06)
(-2.5355175e-06 -1.4317794e-07 4.0168433e-06)
(-8.9192123e-08 -1.8474807e-07 -1.1790989e-07)
(-2.6459847e-06 3.0834358e-07 3.9395491e-06)
(-2.1647519e-06 -1.0860973e-07 4.1071922e-06)
(-2.6023108e-06 -4.1039492e-07 4.4492639e-06)
(-2.3861532e-06 5.3017482e-08 3.811653e-06)
(-2.2683319e-06 -1.3616973e-07 3.8087373e-06)
(-2.8194976e-06 -2.568472e-07 4.3375258e-06)
(-1.9479489e-06 -3.7234655e-07 3.7919108e-06)
(-2.6026279e-06 -6.0234522e-08 4.6638554e-06)
(-2.3611355e-06 7.1386264e-08 3.8561169e-06)
(-3.5999563e-06 1.0279909e-06 4.2582095e-06)
(3.2878287e-08 -1.0710026e-07 -1.8520198e-07)
(-2.6849114e-06 2.1640491e-07 4.7119162e-06)
(-2.8652693e-06 -2.8253493e-07 4.611154e-06)
(-2.5058664e-06 -1.6298426e-07 4.0337563e-06)
(-2.3431071e-06 -5.0223059e-07 4.0801129e-06)
(-3.6516034e-06 1.1793013e-06 4.3816949e-06)
(-2.5203732e-06 -2.4736508e-07 4.0539871e-06)
(-2.4764945e-06 5.0679304e-07 3.7575073e-06)
(-2.7755047e-06 3.7853888e-07 4.8410507e-06)
(-3.392611e-06 1.304389e-06 4.741574e-06)
(-2.59761e-06 -6.9984731e-08 3.8124473e-06)
(-2.3537424e-06 -1.8221051e-07 3.1266391e-06)
(-2.2022777e-06 -4.4676597e-07 4.0106679e-06)
(2.0223278e-07 -2.6645726e-07 -6.6742567e-07)
(-2.9572919e-06 -6.9607827e-07 4.9297337e-06)
(-2.3349056e-06 -5.9366736e-07 4.413034e-06)
(-2.3817877e-06 -6.6226209e-07 3.5466335e-06)