/*--------------------------------*- C++ -*----------------------------------*\
  =========                 |
  \\      /  F ield         | OpenFOAM: The Open Source CFD Toolbox
   \\    /   O peration     | Website:  https://openfoam.org
    \\  /    A nd           | Version:  11
     \\/     M anipulation  |
\*---------------------------------------------------------------------------*/
FoamFile
{
    format      ascii;
    class       volVectorField;
    location    "10000";
    object      wallShearStress;
}
// * * * * * * * * * * * * * * * * * * * * * * * * * * * * * * * * * * * * * //

dimensions      [0 2 -2 0 0 0 0];

internalField   uniform (0 0 0);

boundaryField
{
    wall-fluid_domain
    {
        type            calculated;
        value           nonuniform List<vector> 
33501
(
(0.00023321878 4.8984539e-05 0.00034469256)
(0.0001305536 -2.2766596e-07 0.00018389041)
(0.00017836728 7.7018035e-06 0.00029967702)
(7.6679046e-06 1.0211694e-05 6.0733263e-05)
(5.3197741e-05 -2.5079816e-06 0.00013475473)
(0.00012807558 -3.2209842e-06 0.00019615043)
(0.00015077557 3.4768471e-06 0.00018949288)
(0.0001251094 1.5339796e-05 0.00019879122)
(0.00014546067 -2.7001263e-05 0.00021814087)
(2.363027e-05 1.8970058e-05 1.9832328e-05)
(0.000119734 -1.3790169e-05 0.00017400007)
(0.00018104423 2.1171957e-05 0.0002637598)
(0.00018279647 -3.449894e-05 0.000291532)
(0.00015939665 1.8086517e-05 0.00025706117)
(2.6719195e-05 2.4491763e-05 6.1932083e-05)
(0.00016255313 3.8483269e-05 0.000224083)
(0.00024036731 4.5503326e-05 0.00031807635)
(0.000221766 4.1660497e-05 0.00029444653)
(0.00015177698 6.1731487e-06 0.0001940811)
(-2.5807882e-07 2.7534371e-05 3.6097578e-05)
(0.00020112394 4.2735705e-05 0.00026149142)
(0.00011900478 -4.4989277e-06 0.00017100392)
(0.00016391035 -2.8607702e-06 0.00028656656)
(0.00014007191 -5.9939203e-06 0.00021684808)
(0.00023705879 4.7604729e-05 0.00031583842)
(0.00023659301 4.9153099e-05 0.00033418081)
(0.00012313098 -3.5133056e-06 0.00017681293)
(0.00016705811 -4.5573474e-06 0.00025656848)
(3.9860413e-05 1.9693739e-05 4.1076235e-05)
(0.00017112092 -4.664293e-06 0.00027636782)
(0.0001232158 -7.8007441e-06 0.0001863154)
(0.00020214265 4.2171596e-05 0.00029842216)
(0.0001365745 6.2404673e-07 0.00023537895)
(0.00021114606 4.1921374e-05 0.00029226035)
(0.00020526761 4.5672186e-05 0.00031171436)
(0.0002291239 4.0660489e-05 0.00034885454)
(0.00020746325 4.6090807e-05 0.0003007892)
(4.7069934e-05 1.2913047e-05 5.3065568e-05)
(-3.205934e-06 6.2571541e-06 4.2937771e-05)
(0.00021578886 2.5419028e-05 0.00036335318)
(-8.9660477e-06 -1.7706041e-05 6.3020169e-05)
(0.0001373081 -7.6372463e-06 0.00021162009)
(0.0002120948 1.932272e-05 0.00036506124)
(0.00020136396 -3.2350698e-05 0.00034359446)
(0.00020877466 -2.6968441e-05 0.00035729163)
(0.00018288694 1.6719098e-05 0.00027271812)
(0.00015941748 -5.7579472e-06 0.00024941771)
(0.00013162302 9.484144e-06 0.00016987538)
(0.00012688495 4.5540753e-07 0.0001794655)
(0.00022719059 4.1992454e-05 0.00036014927)
(0.00012143822 -5.1061047e-06 0.00017203247)
(0.0002318717 3.4009088e-05 0.00036305906)
(0.00016872422 7.4730323e-06 0.00029084535)
(0.00023935076 1.2229931e-05 0.00043231672)
(0.00014520943 -6.8580062e-06 0.00022214432)
(0.00012347936 -7.4773334e-06 0.00018754074)
(0.00013135344 -8.4353488e-06 0.00019703258)
(0.00022069271 5.1745741e-05 0.00028367619)
(0.00017695297 3.8617881e-05 0.00023586885)
(1.4639712e-05 1.5532633e-05 2.7201478e-05)
(0.00017444432 1.1898112e-05 0.00028869899)
(4.7759575e-06 2.3034476e-05 2.3196063e-05)
(0.00016339531 -7.8321169e-06 0.00025689799)
(0.00015484035 -1.2249508e-05 0.00024621783)
(1.3415398e-05 2.4801942e-05 5.2876163e-05)
(0.00013296217 -6.3858218e-07 0.00016436956)
(0.00021341303 -3.6690462e-05 0.00035467321)
(0.00020553463 4.2720039e-05 0.00028341834)
(0.00016475291 -1.2147317e-05 0.00026567896)
(0.00015930436 -4.6250467e-06 0.00027834253)
(0.00015059516 -7.1960288e-06 0.00022493341)
(5.7553142e-05 1.1765814e-05 5.7527103e-05)
(0.00016530123 -4.3024074e-05 0.00026001766)
(0.00024194586 4.709553e-05 0.00035583187)
(0.00021423151 -2.2100706e-05 0.00036380518)
(0.00014976208 -7.7305039e-06 0.00022546316)
(0.00017901208 3.2858135e-05 0.00025215559)
(0.00023173341 3.7853563e-06 0.00041230145)
(0.00021581034 -2.0246585e-05 0.00035943641)
(0.00017743224 3.7276987e-05 0.00022664321)
(0.00025662693 5.0264413e-05 0.00032859265)
(1.0507585e-05 2.7091768e-06 6.4725228e-05)
(-6.5479873e-06 1.4505394e-05 5.0973689e-05)
(6.0231665e-05 -5.2321512e-07 9.4048743e-05)
(0.00015552189 -5.5757395e-06 0.00023420743)
(0.00021412081 3.6587204e-05 0.00033077263)
(0.00015247541 -9.9334475e-06 0.00023532234)
(5.0778756e-05 -2.7530873e-06 0.000175407)
(6.9839827e-05 8.8398368e-06 8.0897648e-05)
(9.6192715e-06 2.3485332e-05 2.0944952e-05)
(0.00013863362 -6.8524517e-06 0.00021593084)
(2.169596e-05 2.3541079e-05 2.6874439e-05)
(0.00013656479 -9.3964452e-06 0.00021923632)
(8.4934183e-05 6.5148309e-06 0.00015999823)
(0.00024328676 4.4200942e-05 0.00032391172)
(0.00027667059 4.6406118e-05 0.00038650341)
(0.00024858812 4.5673028e-05 0.00037076952)
(0.00023274831 3.4886077e-05 0.00038820938)
(0.00017634586 3.7134073e-05 0.00024793002)
(0.00015364437 -9.8893981e-06 0.00024931607)
(0.00016363736 -2.8802295e-06 0.00028439699)
(-1.5890241e-06 3.244202e-05 3.8455165e-05)
(1.2980045e-05 2.3773942e-05 7.2593985e-05)
(0.00025943363 5.2090027e-05 0.00032744434)
(8.7309214e-05 2.5095047e-06 0.00016540378)
(0.00017773395 -3.7319146e-06 0.00029744412)
(0.00016927474 -2.4111029e-06 0.00028426665)
(0.00017276801 -2.4744283e-06 0.0002880355)
(0.00024254514 5.3179766e-05 0.00031780236)
(0.00027196109 4.7882598e-05 0.0003839466)
(0.00024746323 4.6592842e-05 0.00030800334)
(0.00025120773 5.2078761e-05 0.00035040187)
(0.00025668478 4.760358e-05 0.00034614851)
(0.0001524827 -8.94392e-06 0.00025559677)
(0.00024918492 4.4042536e-05 0.00036881089)
(0.00021823494 3.8556584e-05 0.00031634969)
(0.00016742052 -5.5149502e-06 0.0002787104)
(-2.4241064e-05 -1.9786918e-05 1.1080022e-05)
(0.00017165263 4.2410043e-06 0.00029494577)
(2.0402218e-06 3.0386403e-05 2.7683582e-05)
(7.7611911e-05 2.6916523e-07 0.00016835158)
(0.00020147327 4.1327687e-05 0.0002714087)
(0.00020156519 3.9981761e-05 0.00026274645)
(0.00019999744 -4.0014954e-06 0.00034176544)
(0.00024069685 4.658719e-05 0.00033054468)
(0.00016855564 -5.8616338e-07 0.00028428517)
(0.000217838 3.8488774e-05 0.00031454564)
(5.3175424e-06 2.701932e-05 2.6081779e-05)
(0.00021524597 3.7966655e-05 0.00028369717)
(-4.6062273e-06 2.9659635e-05 3.3661672e-05)
(0.00025443655 4.5649919e-05 0.00033807062)
(0.00023335956 4.8398619e-05 0.00033547149)
(5.849653e-05 -1.8326955e-06 0.00013029088)
(8.2738222e-05 -4.7474585e-07 0.00015190208)
(0.00023802301 4.3456242e-05 0.00036973211)
(-1.4593283e-05 2.3770235e-05 5.0332899e-05)
(-2.7581115e-05 5.3644096e-06 -4.3842333e-05)
(0.00025172427 4.8514725e-05 0.00033189199)
(0.00021535786 4.4334234e-05 0.00027835896)
(4.1370141e-05 1.1505608e-05 4.1589822e-05)
(0.0002127639 4.1406669e-05 0.00032499087)
(0.00020109788 3.8251975e-05 0.00028413111)
(0.00024280977 5.1686572e-05 0.00033251046)
(1.9176838e-05 1.7219511e-05 1.8912005e-05)
(0.00013634037 7.6544657e-07 0.00024210991)
(0.00021178201 3.7177097e-05 0.00032331585)
(0.00019511721 4.1355076e-05 0.00028683396)
(0.00015191679 1.7267725e-05 0.00023332605)
(0.00021364658 3.8025086e-05 0.00031547268)
(0.00016410155 1.7694219e-05 0.00025958418)
(0.00018488317 -2.849206e-05 0.00030752408)
(3.8707959e-05 2.0065438e-05 3.0656863e-05)
(0.00018161487 -3.06208e-05 0.00030825232)
(0.00022239634 3.7718173e-05 0.00035400776)
(0.00016544897 -3.8840114e-06 0.0002779295)
(3.8814017e-05 2.5122136e-05 4.6842967e-05)
(0.00016119752 8.2427146e-06 0.00028252692)
(0.00021529381 4.3903592e-05 0.00027120715)
(3.763871e-06 2.7559408e-05 2.1443536e-05)
(0.00018065167 2.1536869e-05 0.00028719198)
(8.5232289e-06 2.5757976e-05 1.514733e-05)
(1.9724501e-05 2.4198837e-05 2.9471603e-05)
(0.00021290797 2.4306093e-05 0.00037133073)
(0.00022301739 4.0318299e-05 0.00027200261)
(0.0001730062 5.0846788e-06 0.00029300297)
(0.00021101011 -2.3907138e-05 0.00035269603)
(-6.087087e-07 2.8237259e-05 2.9250206e-05)
(0.00016882712 -7.493962e-06 0.00027628298)
(1.660751e-05 2.4879131e-05 2.1253717e-05)
(0.00017560371 1.1968527e-05 0.00028995806)
(-1.3626535e-05 -2.7749697e-05 -2.8239877e-05)
(-1.6686594e-05 -3.4888529e-05 -3.5609086e-05)
(0.00024599383 2.2057071e-05 0.00043546698)
(2.1178063e-05 2.0829152e-05 2.0253181e-05)
(0.00021297285 3.9946083e-05 0.00032332078)
(0.00023497072 3.7755449e-05 0.00038515646)
(-7.9138486e-06 -2.6318588e-05 -1.43641e-05)
(0.00023514499 3.8170212e-05 0.00036396785)
(0.00015737441 1.6909518e-05 0.00023609259)
(-1.201928e-05 -2.5135185e-05 -1.9603856e-05)
(1.7755258e-05 1.6069203e-05 1.884954e-05)
(2.4204395e-05 1.8117379e-05 1.3131847e-05)
(0.00016676433 7.4613447e-06 0.00028111123)
(1.6916244e-05 2.1192393e-05 1.596021e-05)
(2.0415349e-05 2.2352529e-05 1.5455029e-05)
(0.000118783 -7.1442297e-06 0.00016885502)
(0.00017025048 -3.7278686e-05 0.00024240987)
(0.00014131794 3.0192338e-05 0.00021561585)
(0.00022831573 1.274407e-05 0.00040379338)
(3.3981272e-05 2.0497532e-05 3.4017549e-05)
(0.00021193063 -2.5534096e-05 0.00036424124)
(-4.3275702e-06 2.4677924e-05 3.2098476e-05)
(0.00013781114 1.4454884e-06 0.00023818822)
(3.5891159e-05 8.8061804e-06 0.00012680481)
(0.00017162926 -3.1474451e-06 0.00028125892)
(0.00016639272 1.129384e-05 0.0002798732)
(0.00015331476 1.7623348e-05 0.00025886047)
(3.9149607e-05 5.7561387e-06 0.00012984493)
(0.00019408861 1.8798613e-05 0.00030279113)
(0.00014738267 1.6956125e-05 0.00023090292)
(0.00020395524 1.6158806e-05 0.00030800655)
(0.00021157511 3.9079187e-05 0.00033859294)
(0.00016009624 1.3262843e-05 0.00026574445)
(0.00015995459 9.208748e-06 0.00027910627)
(0.00014737449 4.3155008e-06 0.00025834497)
(0.0001572585 3.0160111e-06 0.00026701912)
(0.00015100539 1.8355023e-06 0.00026396058)
(0.0002475956 2.9977245e-06 0.00042863448)
(0.0001572268 4.2486234e-07 0.00026752396)
(0.00015268472 5.8731337e-06 0.00025998592)
(0.00015281008 -5.251251e-07 0.00026552516)
(0.00017237691 9.5285136e-06 0.00029548817)
(0.00015736928 3.1782571e-06 0.00027472132)
(0.00023867814 3.9324322e-05 0.00037063739)
(0.00018044222 9.2551427e-06 0.00029844795)
(7.5958179e-06 2.0372668e-05 6.708396e-05)
(0.00017208437 1.1326883e-05 0.00029038545)
(-1.5086105e-05 -2.1833618e-05 -5.2547481e-05)
(0.00015543325 -8.5242702e-07 0.00027201508)
(0.00017322645 6.4049109e-06 0.00030223812)
(0.00023116543 3.6775528e-05 0.0003857488)
(0.00015976167 8.4788223e-06 0.00026342546)
(0.0001637378 2.9827163e-06 0.00027669052)
(0.00017279971 1.3467389e-05 0.00029928229)
(0.00016261548 6.627976e-07 0.00027686427)
(-9.274967e-06 2.8932166e-05 3.3295407e-05)
(0.00015538425 -4.865185e-06 0.00027260712)
(0.0002252982 3.5666397e-05 0.0003576699)
(2.0034165e-05 1.8432149e-05 1.8370974e-05)
(0.00017522835 6.7324639e-06 0.00030071673)
(0.00016887804 1.9890611e-05 0.00027839293)
(0.00018607556 5.9721843e-06 0.00030739522)
(0.00015959888 9.2178288e-06 0.00026514213)
(-4.4168833e-07 1.2378922e-05 5.0288629e-05)
(7.1541931e-05 1.5010701e-05 8.9663965e-05)
(0.00016374933 -5.2408372e-06 0.00027544294)
(0.00015780651 8.9486219e-06 0.00026294752)
(2.2195935e-05 -7.6251002e-06 0.0001161769)
(3.9742784e-05 5.037641e-06 0.00012836288)
(0.00014770676 -1.0540356e-05 0.00024095535)
(0.00021162033 3.1574843e-05 0.00033684776)
(0.0002431559 3.9356637e-05 0.00037654343)
(-2.6489458e-05 2.4598716e-05 5.0963147e-05)
(0.00014642273 -9.3281866e-06 0.00022757421)
(0.00017628361 4.4257474e-06 0.00030865289)
(-1.5384233e-06 3.0183801e-05 4.2278413e-05)
(-1.0547013e-05 3.3233158e-05 3.3771268e-05)
(0.00024506381 -3.2512702e-05 0.0003911714)
(0.00024310685 -3.3915565e-05 0.00038758078)
(5.209851e-05 1.7249071e-05 5.0023338e-05)
(0.00014424453 -8.1298204e-06 0.0002506058)
(1.8306732e-06 3.0993997e-05 1.8235165e-05)
(-8.1442275e-07 2.7382354e-05 2.016527e-05)
(-5.1329398e-07 3.1927162e-05 1.2584849e-05)
(0.00024252789 4.0151485e-05 0.00038857333)
(-2.6401085e-05 2.7287182e-05 4.5866597e-05)
(-2.888265e-06 2.7112155e-05 1.2743871e-05)
(0.0002160469 3.2738769e-05 0.00035422869)
(8.428515e-05 -6.7657933e-06 0.00015382738)
(1.4837573e-06 2.4878844e-05 2.3868979e-05)
(0.00021981501 3.1901471e-05 0.00035135613)
(5.245054e-05 -4.013641e-06 0.00012313226)
(0.00012805994 -7.7875906e-06 0.00018189705)
(-6.3894928e-06 2.8925841e-05 2.5151249e-05)
(0.00015462916 -2.7443912e-06 0.00025712639)
(-2.609975e-06 2.741546e-05 2.3950538e-05)
(5.3801266e-05 -1.7223459e-05 0.00014967522)
(0.0001369288 -7.4958842e-06 0.00019818848)
(6.9773493e-05 1.3080154e-05 7.4497622e-05)
(0.00015178682 -1.2728823e-05 0.00025460255)
(-2.5194124e-06 3.0126888e-05 1.9665745e-05)
(4.8830954e-05 1.7820736e-05 5.2548826e-05)
(-6.2655599e-06 3.327905e-05 3.2541793e-05)
(0.00017187105 1.9828868e-05 0.00027550403)
(-1.1396768e-05 3.6523582e-05 2.5812945e-05)
(4.7038453e-05 2.208953e-05 4.4337207e-05)
(0.00017200422 2.3518221e-05 0.00029415657)
(0.00025426764 2.6519525e-05 0.00042648437)
(0.00025821717 2.6141793e-05 0.00043495789)
(0.000249624 2.0019135e-05 0.00042566082)
(0.00015906746 1.6669284e-05 0.00027045154)
(1.8953108e-05 2.4198964e-05 2.063071e-05)
(0.00024967076 1.6336528e-05 0.00042930112)
(2.3720136e-05 2.098843e-05 1.7593213e-05)
(0.00025887404 2.5145881e-05 0.00043194721)
(0.00017005 -4.5928677e-06 0.00029623154)
(0.00024415739 1.6265691e-05 0.00042570705)
(3.9655972e-05 2.1387144e-05 3.2678139e-05)
(0.0002074224 2.5362894e-05 0.00034209802)
(0.00019511077 4.1325935e-05 0.00024764994)
(0.0002500383 2.2887792e-05 0.00042343575)
(0.00017842532 -4.1025028e-06 0.0002964606)
(0.00024633281 8.3543926e-06 0.00042154764)
(0.0002075116 2.5527659e-05 0.00034680469)
(0.00024325652 3.8139672e-05 0.00037503421)
(0.00024629476 2.4430056e-05 0.00041778608)
(1.9200664e-05 2.6153529e-05 9.4141527e-06)
(0.00025300985 3.8667211e-05 0.00040969754)
(0.0001306023 -5.0036711e-07 0.00023577497)
(1.5995826e-05 2.3543479e-05 2.0282285e-05)
(0.00026248419 2.7825678e-05 0.00044037105)
(0.00020871924 2.4157791e-05 0.00034562829)
(0.00014936573 -7.500156e-06 0.00024885355)
(0.0002371518 3.5916396e-05 0.00039944174)
(0.00025129018 3.8682169e-05 0.00040567949)
(0.00022502677 3.0141079e-05 0.00036718148)
(0.00025636733 3.0802619e-05 0.00043462576)
(0.00024125909 8.3131747e-06 0.00041472537)
(0.00021525998 2.8618158e-05 0.00036336659)
(-1.1093939e-05 2.7577455e-05 4.2337701e-05)
(0.00023133969 2.2966318e-05 0.00041206083)
(-2.2459952e-05 2.7294339e-05 4.1560327e-05)
(0.00024118875 5.2098771e-06 0.0004252656)
(0.00021689615 3.3990085e-05 0.00035889716)
(0.00021593785 4.4445664e-05 0.00026732723)
(0.00021672647 2.7951306e-05 0.00035987693)
(0.00024488589 2.7221135e-05 0.00042845812)
(4.2864026e-05 -2.4788865e-06 0.00013500073)
(0.00013604882 -8.6687322e-06 0.00022899534)
(0.00021418562 2.6547616e-05 0.00036933007)
(0.00023026615 1.7664151e-05 0.00039267635)
(0.00022134747 2.4221727e-05 0.00036780205)
(0.00022761913 1.1516877e-05 0.00039240896)
(0.00019045442 1.9251511e-05 0.00033052295)
(0.00014343652 -7.8803943e-06 0.00022653479)
(4.2855361e-05 2.8444594e-06 0.00012326947)
(0.00024260687 3.0625605e-06 0.0004212032)
(0.00021633547 2.3247069e-06 0.00039081535)
(0.00021882574 3.0389917e-05 0.0003580126)
(4.1881347e-05 6.0948532e-06 0.00012237426)
(0.00022333313 1.7079517e-05 0.00040078821)
(-3.0929838e-05 2.8342372e-05 3.6055779e-05)
(0.00021776282 2.8313641e-05 0.00036785421)
(0.00018912634 1.6972709e-05 0.00033797848)
(9.7971255e-07 9.025527e-06 5.5135093e-05)
(0.00024780479 1.9748111e-06 0.00042144523)
(0.00020662988 1.237545e-05 0.00036568708)
(8.1711445e-06 2.4636545e-05 2.2619476e-05)
(-8.9216606e-06 2.5506273e-05 1.4146852e-05)
(0.00020928497 4.2519914e-05 0.00025734582)
(-3.440701e-05 2.994244e-05 3.9213483e-05)
(0.00022377404 2.0884812e-05 0.00038795843)
(0.00016495486 1.9037584e-05 0.00025487609)
(-3.3671379e-06 2.5204626e-05 9.4505939e-06)
(0.00023488701 3.0908993e-05 0.00038835535)
(1.7798409e-05 2.3343563e-05 1.6663452e-05)
(-3.3755342e-05 1.7202936e-05 4.3585824e-05)
(0.000233452 1.878441e-05 0.00039403001)
(0.00025052739 3.6350839e-05 0.00039562296)
(-1.3250563e-05 3.1459109e-05 1.6961326e-05)
(0.00017722969 1.8598883e-05 0.0003073584)
(0.00018144831 1.5698615e-05 0.00030644856)
(0.00024348882 3.0470587e-05 0.00039167277)
(0.00023030266 3.8699293e-05 0.00027644605)
(0.00023790386 4.9076705e-05 0.00031379943)
(0.00024305303 1.9542452e-06 0.00041944999)
(0.00024941265 3.5218479e-05 0.00039282514)
(0.0002403619 3.0772233e-05 0.00038933863)
(0.0001548871 1.5352284e-05 0.0002533704)
(0.00020405514 4.5711365e-05 0.00026450682)
(0.00020626978 1.0025949e-05 0.00037392994)
(0.00016230091 -3.3686707e-06 0.00027724918)
(0.00016104044 -3.7130494e-06 0.00027920057)
(0.00021585266 1.4170385e-05 0.00036765746)
(0.00022216151 1.8043957e-05 0.00039122006)
(0.00022490897 2.1007918e-05 0.00037082998)
(0.00021664941 1.4725756e-05 0.00036637512)
(0.00021350717 2.5428332e-05 0.00036219573)
(-1.4098067e-05 3.1176195e-05 2.0190721e-05)
(0.00021191862 1.3858817e-05 0.00036261022)
(0.00016103393 7.5153967e-06 0.00028730701)
(0.00017614989 -7.8051494e-06 0.00030394521)
(0.00021544178 2.1222558e-05 0.00036777137)
(0.00023474266 4.7164605e-05 0.00028427387)
(0.00023833724 1.491159e-05 0.00041271016)
(2.6527167e-05 2.3859261e-05 2.3998042e-05)
(0.00022186998 1.0988897e-05 0.00039232978)
(0.00026006838 1.3413282e-05 0.00044641802)
(0.00014118691 -8.6968068e-06 0.00024008562)
(4.1105061e-05 2.4477478e-05 4.2600703e-05)
(-1.4303376e-05 3.3927903e-05 1.5390609e-05)
(2.1539475e-05 2.3101544e-05 1.8355718e-05)
(0.00022999939 3.8859567e-05 0.00033946908)
(0.00015064215 -7.5483872e-06 0.00024936567)
(-1.3664671e-05 -3.2107602e-05 -3.6694795e-05)
(2.3518511e-05 2.8190922e-05 1.3590505e-05)
(5.0112854e-05 1.6307076e-05 4.6602992e-05)
(0.00021380121 3.8481543e-05 0.00025811037)
(1.7124215e-05 2.5207746e-05 6.6730368e-06)
(4.4523853e-05 1.8745349e-05 3.8995065e-05)
(-2.3562532e-05 2.7093426e-05 3.445658e-05)
(-2.1087601e-05 2.9372783e-05 2.9170442e-05)
(-1.9409904e-05 2.7838742e-05 2.2726083e-05)
(-2.9382801e-05 3.0377629e-05 2.3576082e-05)
(-3.0757948e-05 2.846375e-05 3.2401475e-05)
(-2.7055149e-05 3.26705e-05 1.9521332e-05)
(0.00029540623 4.0955467e-05 0.00034356509)
(-2.9040593e-05 2.8428419e-05 2.2456348e-05)
(0.00021806173 2.6503585e-06 0.00038041309)
(-3.5423924e-05 2.7031144e-05 2.6865781e-05)
(5.0901304e-05 1.5025382e-05 5.1518976e-05)
(-3.5447019e-05 2.7914029e-05 2.7057587e-05)
(0.00017450162 1.0388508e-05 0.00029930222)
(-3.7040882e-05 2.55759e-05 3.5148619e-05)
(0.00015903483 6.3926727e-06 0.00029149189)
(0.00011678566 -2.7977189e-05 0.00022918969)
(0.00022199173 8.2984606e-06 0.00039004551)
(-6.8451121e-06 2.6640312e-05 1.4666853e-05)
(0.00012687969 -5.7777615e-06 0.00021905298)
(0.00021818967 -3.2097999e-06 0.00037929617)
(-5.6686405e-06 2.9892406e-05 1.3702731e-05)
(0.00014254304 -4.1890381e-06 0.00022998162)
(0.00021570691 2.5826694e-06 0.00037472129)
(0.00016982961 -9.4419738e-06 0.00027910959)
(5.9980986e-05 -2.7661691e-06 0.00012312567)
(0.00015739979 2.0248463e-05 0.00025468882)
(0.00016065666 1.51889e-05 0.00026481285)
(1.280333e-05 2.5277533e-05 2.1433016e-05)
(1.976843e-05 2.9770494e-05 1.7115536e-05)
(7.499453e-05 -5.3684916e-06 0.00014716342)
(0.00021426273 -2.9304244e-06 0.00037238079)
(1.8121585e-05 1.5728525e-05 8.1828482e-05)
(3.9286554e-05 5.5033702e-06 0.00011289685)
(0.00023646015 2.6272846e-05 0.00038668586)
(0.00012843701 -5.4155418e-06 0.00021918346)
(0.00021749287 4.1588373e-05 0.00034125144)
(1.7180603e-05 2.4053833e-05 1.8541505e-05)
(-9.8542794e-06 2.7387968e-05 1.8292384e-05)
(3.0135878e-05 2.9034013e-05 2.7531652e-05)
(-1.4764168e-05 3.0206895e-05 2.0885923e-05)
(4.6953144e-05 2.5409941e-05 4.0353634e-05)
(3.1855293e-05 2.3511501e-05 2.644901e-05)
(2.7387758e-05 2.3494358e-05 1.9361631e-05)
(-7.6127492e-06 2.8642865e-05 1.1468742e-05)
(0.00022309114 -3.1088158e-06 0.00038360683)
(3.3889382e-05 2.5799037e-05 3.2436779e-05)
(2.5927152e-05 3.0225158e-05 2.1352663e-05)
(2.0061244e-05 3.4459776e-05 2.1475726e-05)
(2.2410027e-05 2.695305e-05 8.0465987e-06)
(1.1684706e-05 3.3148029e-05 1.3504039e-05)
(1.4026353e-05 2.6902448e-05 5.3180423e-06)
(0.00015106762 -6.2604643e-06 0.00025006569)
(-1.4385757e-05 -3.2618984e-05 -5.087513e-05)
(0.00021926294 3.7229296e-05 0.00035287543)
(0.00021722334 3.2055817e-05 0.00034807686)
(-9.5015987e-06 -2.6993807e-05 -8.0811142e-06)
(-2.6904e-05 2.7761276e-05 2.1783954e-05)
(5.0073179e-05 7.7788696e-06 0.00012625267)
(0.00021180494 3.5109505e-05 0.00024996485)
(4.9043613e-05 9.039573e-06 0.00011649758)
(-2.0022653e-05 2.9995006e-05 1.1209198e-05)
(0.00016928619 3.4301843e-05 0.00020668241)
(4.6618364e-05 2.6504163e-05 5.1623798e-05)
(4.3515877e-05 4.8652586e-06 0.00010678713)
(5.2275895e-05 -1.9510021e-06 0.00012127583)
(-1.1089713e-05 3.0506513e-05 1.5449198e-05)
(0.00017056449 1.8640993e-05 0.00027998303)
(0.00022925329 4.1292811e-05 0.00026951746)
(0.00024591015 4.7036241e-05 0.00029566497)
(-2.8738659e-05 3.323255e-05 1.9642867e-05)
(-3.1821532e-05 3.2251878e-05 2.4302602e-05)
(0.00023536247 4.0408999e-05 0.00027326212)
(0.00018052253 1.740861e-05 0.00028822632)
(0.000172851 1.8626346e-05 0.00028109275)
(5.2612646e-05 2.2637408e-05 5.1364255e-05)
(0.00013383103 -1.0759244e-05 0.00021851203)
(-1.4035972e-05 2.5940302e-05 6.4903068e-06)
(0.00024886731 4.4907697e-05 0.00029650422)
(-9.376894e-06 2.7999416e-05 8.8543519e-06)
(5.3709837e-05 -1.9951259e-06 0.00012113226)
(4.6770723e-05 5.312661e-06 0.00011214765)
(5.6270652e-05 2.6597687e-05 6.0911312e-05)
(-1.0865072e-05 2.8094215e-05 1.2668546e-05)
(0.00018139588 -5.1982137e-06 0.00029070453)
(1.1649983e-05 2.3873353e-05 1.851617e-05)
(0.00028784895 4.8123863e-05 0.00033541496)
(4.7410764e-05 1.415737e-05 4.8249634e-05)
(5.0760586e-05 1.6857128e-05 5.257536e-05)
(0.00023411426 3.5771567e-05 0.00027421841)
(4.8679991e-05 1.1730064e-05 4.8805651e-05)
(9.4240606e-06 2.166736e-05 1.8176548e-05)
(0.00022907515 3.7286112e-05 0.00027199455)
(-2.1099031e-05 2.4596773e-05 1.5281864e-05)
(4.8523063e-05 1.3788321e-05 5.2976618e-05)
(6.252726e-05 8.4084891e-06 6.1554188e-05)
(3.4649376e-05 1.0731029e-05 0.00011714919)
(-1.3571435e-05 -7.6336779e-06 -5.5279307e-05)
(0.00020524597 4.2699412e-05 0.00025575589)
(0.00021324469 3.3341195e-05 0.00033519637)
(0.00016776228 -1.0041139e-05 0.00028501218)
(0.00022003401 3.7119399e-05 0.00034389572)
(-1.8263935e-05 2.2712145e-05 1.2687119e-05)
(5.0984736e-05 4.2678627e-06 0.00010252444)
(-1.3886684e-05 2.9234519e-05 8.9112092e-06)
(1.6898753e-05 3.5141912e-05 1.8615157e-05)
(-1.8308852e-05 3.694534e-05 7.381958e-06)
(-1.6595516e-05 2.8090525e-05 1.1188162e-05)
(-2.071611e-05 3.3668558e-05 -1.3651536e-07)
(4.4771227e-05 -1.7617798e-06 0.00010752824)
(-1.2128806e-05 2.7753777e-05 8.4815482e-06)
(-8.7962871e-06 2.7296363e-05 7.5984283e-07)
(-1.2360363e-05 2.7893793e-05 7.8783179e-07)
(-2.2323116e-05 2.6968713e-05 4.1904875e-06)
(-2.7072311e-05 3.1938169e-05 1.185008e-05)
(-9.45454e-06 2.5303053e-05 -4.2792461e-07)
(-7.8168135e-06 2.6834861e-05 2.8111104e-06)
(-1.6215446e-05 2.5375151e-05 3.7379313e-06)
(-1.2235686e-05 2.2292712e-05 4.2762994e-06)
(6.3431387e-05 2.6101283e-05 6.2145728e-05)
(8.0677849e-05 1.2259392e-05 0.00015505267)
(-4.6567607e-06 -6.3278997e-06 -2.2470701e-06)
(7.5101842e-05 -7.9319758e-06 0.00013858206)
(5.7138437e-05 -1.1574965e-05 0.00012823891)
(4.9944092e-05 -9.1700622e-06 0.00011751361)
(6.780443e-05 3.4448308e-06 0.00014354009)
(0.00020510203 3.3960798e-05 0.00024042927)
(0.00021686042 2.7252672e-05 0.00024977536)
(0.00021566795 3.2832552e-05 0.00024699507)
(0.0002257184 3.1071199e-05 0.00026082379)
(0.00022941075 2.9132076e-05 0.00025426086)
(0.00022242938 3.260417e-05 0.00025794712)
(0.0002446141 3.0122399e-05 0.00026888363)
(0.00023652335 2.5432447e-05 0.00025765907)
(0.00021379334 2.9677006e-05 0.00023494529)
(0.00023737266 3.8655486e-05 0.00026711778)
(0.00024150516 3.3375693e-05 0.00026309095)
(0.00023381105 2.7166215e-05 0.00025541796)
(0.00022372052 2.3476941e-05 0.00023657356)
(0.0002258044 2.3579684e-05 0.00023784723)
(0.00023617533 2.7714066e-05 0.00024841469)
(0.00024892093 2.3352052e-05 0.00025897369)
(0.0002455829 1.6517683e-05 0.00025453868)
(0.00022656995 3.0922502e-05 0.00025650777)
(0.00024331919 1.9113724e-05 0.00025015295)
(0.000217311 2.34616e-05 0.00022758725)
(0.00022751833 3.0789712e-05 0.00025494682)
(0.00016372127 2.9168474e-05 0.00019567291)
(0.00024133776 2.828041e-05 0.00025458635)
(0.00021956929 3.1253665e-05 0.00024160622)
(0.00022854054 3.0209833e-05 0.0002620743)
(0.00022560369 3.3889522e-05 0.00024950342)
(0.00022302334 2.4789274e-05 0.00024017917)
(0.00020927726 1.9219989e-05 0.00022107035)
(0.00022886406 2.0706503e-05 0.00023312542)
(0.00023285569 1.5728504e-05 0.00023885551)
(0.00021724619 2.4938004e-05 0.00023099212)
(0.00020999313 3.4296136e-05 0.00024067198)
(0.00019225031 1.7239874e-05 0.00019705464)
(0.00022921232 1.3893231e-05 0.0002383296)
(0.00023362887 1.2072852e-05 0.00023267454)
(0.00018231844 5.6051734e-06 0.00019116062)
(0.0002355341 4.2352217e-05 0.0002761513)
(0.00022427277 9.2123752e-06 0.00022384882)
(0.00021477387 2.3253004e-05 0.0002255506)
(0.00022019093 2.0406393e-05 0.0002383573)
(0.00017217442 8.0358284e-06 0.00018395392)
(0.00022635757 2.1943953e-05 0.00025600996)
(0.00017123515 1.1070563e-05 0.00018014809)
(0.00022000546 2.5749087e-05 0.00023407998)
(0.0002258113 2.5258256e-05 0.00025173171)
(0.00021135146 3.0850149e-05 0.00024820599)
(0.00021079698 2.8553087e-05 0.00024350783)
(0.00019915308 1.2770356e-05 0.00021090645)
(0.00021220378 1.6127093e-05 0.00023361364)
(0.00022719477 1.8510932e-05 0.00023286989)
(0.00021406803 2.7002975e-05 0.00024791364)
(0.00020365001 1.6735193e-05 0.00021560029)
(0.00020833898 2.3895122e-05 0.00023259162)
(0.00022455599 3.3107746e-05 0.00025856653)
(0.00021551875 2.9797455e-05 0.00023909099)
(0.00021221139 2.3245019e-05 0.00023028138)
(0.0002251781 4.9984965e-06 0.00023398127)
(0.00021935435 1.7242868e-05 0.00022843251)
(0.00021720383 3.8049355e-06 0.00022275406)
(0.00019682533 1.1746735e-05 0.00021048388)
(0.00019574729 5.7543421e-06 0.00020961592)
(0.00016843376 8.9646532e-06 0.00017733012)
(0.00019405509 1.896476e-05 0.00019311754)
(0.00023407039 1.247057e-05 0.00023338145)
(0.00016158841 2.8445848e-06 0.0001699652)
(0.00020066919 1.7146531e-06 0.00021694645)
(0.00021209999 2.5337756e-05 0.00023231679)
(0.0002035642 1.9769631e-05 0.00021155841)
(0.0001947886 3.1279119e-05 0.00023151244)
(0.00019405985 5.6670489e-06 0.00019176582)
(0.00019062625 3.4200788e-05 0.00022399058)
(0.00019188027 4.6899532e-06 0.00020465754)
(0.00019371276 -2.8076422e-07 0.00019961266)
(0.00021624342 2.3535379e-05 0.00023929192)
(-1.1546589e-05 -1.4916909e-05 -5.2624776e-05)
(0.00020221691 -6.2881192e-06 0.00020491037)
(-1.2157366e-05 -3.6651487e-05 -4.3728814e-05)
(0.0002224967 1.478377e-05 0.00021989165)
(0.00021562436 2.4290594e-05 0.0002503275)
(-1.8098194e-05 -3.458932e-05 -7.0163256e-05)
(0.00021271673 1.3665713e-05 0.00023595714)
(0.00022489196 4.4222981e-05 0.00026707144)
(0.00020964471 1.5949437e-05 0.00022197679)
(0.00022819094 5.3764176e-05 0.00028743228)
(0.00023062202 2.3270966e-05 0.00024738176)
(0.00023265067 4.4857741e-05 0.00027623838)
(0.00015453029 8.3437462e-06 0.00016988625)
(0.00019585088 2.6473829e-05 0.00022240936)
(0.00018121471 7.3601303e-06 0.00018447154)
(0.00022898227 -2.5963691e-07 0.00022703555)
(0.00020367062 4.1602889e-06 0.00021794662)
(0.00021189038 1.7871571e-05 0.00023019564)
(0.00022303759 3.0650168e-05 0.00025652356)
(0.00014781201 1.4695837e-05 0.00019723304)
(0.00016840497 -7.3784397e-06 0.0001808381)
(0.00014086037 1.3870178e-05 0.00019352174)
(-1.1937781e-05 -3.2726673e-05 -3.3816431e-05)
(0.00019705265 4.0278096e-05 0.00024606359)
(0.00019807263 2.6252128e-05 0.00022411157)
(0.00019770816 -2.6789893e-06 0.00020089875)
(0.000196214 -3.8179161e-06 0.00019790656)
(0.00020407185 6.3006853e-06 0.00022308181)
(0.00020525658 -5.9120602e-08 0.00022069875)
(0.00019420016 -1.5540038e-06 0.00020811417)
(0.00021027785 5.9310288e-06 0.0002276943)
(0.00016324067 -5.7203463e-06 0.00017396717)
(0.00018236333 1.1010723e-05 0.00020589716)
(3.8800769e-05 1.6090743e-05 0.0001059199)
(0.00020620855 4.7738721e-06 0.00022547567)
(0.00014018154 -9.9096173e-06 0.00015197514)
(0.0001429734 -3.9584509e-06 0.00016040989)
(0.00014056129 1.0730845e-05 0.00018501962)
(0.00019238747 -6.1119634e-06 0.00018896323)
(0.00015541613 -8.9938224e-06 0.0001762892)
(0.00018230729 1.8237072e-05 0.00020532631)
(0.00018107957 6.539582e-06 0.00020635122)
(0.00017933791 1.7492812e-05 0.00020214231)
(0.00019565645 6.3091719e-06 0.00021152072)
(0.00013889356 -3.538231e-06 0.00015487827)
(0.00016421296 -1.5863624e-06 0.00018097665)
(0.00015823734 -1.3400105e-05 0.00017698728)
(0.00015126451 -7.2076251e-06 0.00017017898)
(0.00019649271 1.9780766e-06 0.00019565554)
(0.00014926312 -8.9290778e-06 0.00017237092)
(0.00016221246 -8.1471307e-06 0.00018273705)
(0.00015045576 -7.517684e-06 0.00017260564)
(0.0001400233 -7.2057524e-06 0.00014766987)
(0.00014439205 -1.0831597e-05 0.00017078976)
(0.00014446697 -1.2997429e-05 0.00017275876)
(0.00018723318 6.9115211e-06 0.00021403791)
(0.00015400289 -1.2696638e-05 0.00017245516)
(0.00016358453 -1.4006158e-05 0.00016734962)
(0.00017276033 -8.5872149e-06 0.00016992161)
(-2.0272277e-05 5.5407966e-07 -4.1025097e-05)
(0.00013607254 -9.4529954e-06 0.00016400991)
(0.0001638718 -1.615039e-05 0.0001819792)
(0.00016827006 -2.4669445e-05 0.00024471595)
(0.00014558687 -1.3500268e-05 0.00017346475)
(0.0001362286 -1.2453225e-05 0.00017262995)
(0.0001277582 -1.1133346e-05 0.0001581713)
(0.00014637349 -7.7798821e-06 0.00017879601)
(0.00012849082 -9.2599553e-06 0.00016596921)
(-1.3980173e-05 -2.8693387e-05 -1.4659776e-05)
(0.00014078186 -1.1437204e-05 0.00016596756)
(0.00016243288 -1.4783001e-05 0.00017634248)
(-1.5208614e-05 -3.6544295e-05 -3.394195e-05)
(0.00012697302 -1.0742299e-05 0.00016258616)