/*--------------------------------*- C++ -*----------------------------------*\
  =========                 |
  \\      /  F ield         | OpenFOAM: The Open Source CFD Toolbox
   \\    /   O peration     | Website:  https://openfoam.org
    \\  /    A nd           | Version:  11
     \\/     M anipulation  |
\*---------------------------------------------------------------------------*/
FoamFile
{
    format      ascii;
    class       volVectorField;
    location    "10000";
    object      wallShearStress;
}
// * * * * * * * * * * * * * * * * * * * * * * * * * * * * * * * * * * * * * //

dimensions      [0 2 -2 0 0 0 0];

internalField   uniform (0 0 0);

boundaryField
{
    wall-fluid_domain
    {
        type            calculated;
        value           nonuniform List<vector> 
43271
(
(-7.5839244e-05 4.8213311e-06 5.9580825e-05)
(-6.1009181e-05 8.9900295e-07 5.4989852e-05)
(-0.0003053884 -6.9161743e-06 0.00017475382)
(-8.5919155e-05 8.6564163e-06 9.4898293e-05)
(5.3054104e-05 -9.1873229e-05 -4.7457354e-05)
(-0.0001004286 7.7751341e-06 9.6417558e-05)
(-0.0002864504 -7.3920943e-06 0.00016506536)
(-8.9385857e-05 3.8695274e-06 9.6210772e-05)
(-0.00010061446 1.2378929e-05 9.8649999e-05)
(-7.9523862e-05 4.7905476e-06 8.732535e-05)
(-0.00028314867 -5.7969265e-06 0.00016799917)
(-0.00017163863 -1.4098438e-05 6.9073752e-05)
(-7.9651188e-05 5.5923934e-06 8.7329936e-05)
(-0.00012566406 1.5013568e-05 0.00010320856)
(-0.00015117494 1.5910798e-05 0.00011394105)
(-0.00015183494 1.359778e-05 0.00010205147)
(-0.0003736386 4.8041789e-05 8.0193695e-05)
(-0.00015261084 9.1170379e-06 9.2840492e-05)
(-7.9290005e-05 3.6083534e-06 8.9762627e-05)
(-0.00020361424 5.9306207e-06 0.00011186659)
(-8.1598787e-05 7.7992893e-06 7.9407065e-05)
(-0.0001525441 1.0328614e-05 0.00010347193)
(-6.3147346e-05 2.4915546e-06 5.4969002e-05)
(-0.00014783658 6.5774475e-06 9.3898308e-05)
(-0.00015129314 1.9973804e-05 0.00011530279)
(-0.00015469423 1.3686609e-05 0.00010952114)
(-0.00021537768 -7.5915087e-06 0.00011944624)
(-7.5871692e-05 5.4658608e-06 6.855782e-05)
(-0.0001016576 1.652961e-05 0.00010039228)
(-0.00015805857 1.9541499e-05 0.00011838702)
(-0.00010852668 1.0762631e-05 9.7517532e-05)
(-0.00015283253 7.9325587e-06 9.5370478e-05)
(-0.00022213638 1.8185733e-05 3.7622416e-05)
(-0.00014896858 1.5173873e-07 8.2548134e-05)
(-8.5398536e-05 9.5418169e-06 6.5821946e-05)
(-0.00016224252 1.1757316e-05 0.00010994563)
(-0.00018007664 8.0273877e-06 0.00011463092)
(-9.5551761e-05 1.1997284e-05 8.8441746e-05)
(-0.00021811945 -9.8007524e-06 0.00012134202)
(-0.00017558627 4.3473625e-06 0.00010372676)
(-0.00014436628 1.0818185e-05 0.00011271519)
(-7.8768924e-05 9.3488725e-06 8.2891575e-05)
(-0.00019084797 1.1306483e-05 0.00011847783)
(-8.8270613e-05 8.8637568e-06 8.814316e-05)
(-9.255329e-05 1.194548e-05 9.6124924e-05)
(-7.4153342e-05 3.2809749e-06 5.5248442e-05)
(-6.7871375e-05 1.7619878e-06 5.3487548e-05)
(-0.00014053696 1.8019334e-05 0.00011190436)
(-0.00016083096 1.1963668e-05 0.00011043203)
(-9.6042231e-05 1.4094264e-05 8.5125865e-05)
(-0.00015734238 1.5727146e-05 0.00011091877)
(-9.6818027e-05 1.2928825e-05 8.9013412e-05)
(-0.00019700258 1.1759417e-05 0.00012928512)
(-5.7559647e-05 -1.6898128e-06 6.2235873e-05)
(-0.00010596103 1.1177697e-05 9.1156434e-05)
(-0.00019976927 1.7338591e-05 0.0001290767)
(-7.6889382e-05 3.7495755e-06 6.2279278e-05)
(-0.00012675489 1.2094715e-05 0.00010475825)
(-8.7209135e-05 1.1380435e-05 8.3458539e-05)
(-8.4619295e-05 -1.5592635e-08 7.2910772e-05)
(-8.2809694e-05 6.5697762e-06 8.8009478e-05)
(-5.6640853e-05 -1.7661497e-06 5.2054563e-05)
(-0.00014720763 1.2540186e-05 0.00010978634)
(-9.6409339e-05 1.406714e-05 8.504269e-05)
(-0.00014183798 1.7073756e-05 0.00010739447)
(-0.00012840608 1.4657012e-05 0.0001041963)
(-8.6407065e-05 1.045285e-05 7.9290967e-05)
(-0.00011166875 1.1550677e-05 9.5931585e-05)
(-8.1260464e-05 3.3466825e-06 5.9531338e-05)
(-0.00034956688 5.3310833e-05 7.5162868e-05)
(-0.00013296235 1.6479639e-05 0.00010523827)
(-8.8280206e-05 1.898058e-06 6.0414833e-05)
(-0.00011794395 1.6367346e-05 9.7066213e-05)
(-0.00010825342 8.5322848e-06 8.6221272e-05)
(-0.00022508869 8.9879044e-05 2.1597304e-05)
(-9.7499441e-05 5.5785395e-06 7.5369831e-05)
(-7.917372e-05 2.1385255e-06 5.4427315e-05)
(-9.3183935e-05 5.5938996e-06 7.2428136e-05)
(-8.6453572e-05 3.5209341e-06 7.123363e-05)
(-9.2207049e-05 7.4801639e-06 7.0521465e-05)
(-7.1909442e-05 3.0340775e-06 5.3629842e-05)
(-9.6506387e-05 6.8191175e-06 7.3702368e-05)
(-8.4811482e-05 2.4687102e-06 6.3108647e-05)
(-9.4628446e-05 5.4178434e-06 7.0569938e-05)
(-8.711255e-05 6.2707764e-06 6.2728124e-05)
(-0.00023596623 9.7300255e-05 2.977323e-05)
(-9.7605029e-05 1.4484624e-06 6.622167e-05)
(0.00010667142 -1.3124492e-05 -5.7162308e-05)
(-6.8968832e-05 6.1593753e-06 5.8602149e-05)
(-0.00010179419 4.1664946e-06 6.6141612e-05)
(-9.3174517e-05 6.1741644e-06 6.2618078e-05)
(0.00010550505 -6.8199432e-06 -5.1426516e-05)
(-6.326201e-05 9.7783815e-07 5.600121e-05)
(-0.00020533566 4.9003189e-05 2.4778834e-05)
(-0.00010745345 7.9086603e-06 6.9545935e-05)
(-0.00011343256 5.8331959e-06 7.2234639e-05)
(-0.00011149923 1.060614e-05 8.625506e-05)
(-9.0626651e-05 2.6885691e-06 5.6362752e-05)
(-9.6147947e-05 4.1234853e-06 6.1540918e-05)
(-8.5253606e-05 4.250078e-06 5.5165323e-05)
(-0.00010215138 7.6888661e-06 6.4413536e-05)
(-9.5340837e-05 6.8203443e-07 5.801306e-05)
(-9.7611967e-05 5.7352994e-06 7.4265579e-05)
(-8.7651297e-05 2.1731213e-06 5.4410294e-05)
(-7.8072655e-05 3.2447973e-06 5.2840645e-05)
(-9.2079709e-05 9.4075872e-08 6.5026038e-05)
(-8.793242e-05 1.7410761e-06 6.0948183e-05)
(-0.00011921349 8.6070018e-06 7.5044584e-05)
(-0.00011555943 4.093995e-06 7.0790012e-05)
(-9.7336885e-05 3.0097377e-06 5.628529e-05)
(-8.8355009e-05 2.2993409e-06 5.1599197e-05)
(-0.00010581319 1.8607083e-06 7.0665509e-05)
(-0.00037138436 4.6679444e-05 7.5173061e-05)
(-0.00012217959 7.9176172e-06 7.2971481e-05)
(-0.00012916157 9.8147791e-06 9.5586022e-05)
(-8.8781314e-05 3.1268142e-06 6.7443859e-05)
(-0.00026703776 1.3487026e-05 0.00014866772)
(-0.00021970914 9.5230021e-06 0.00012483815)
(-8.4930914e-05 -1.2124821e-06 6.3810107e-05)
(-0.0002541784 1.3703795e-05 0.00015132867)
(-0.00026100863 9.2111216e-06 0.00015014983)
(-4.8162612e-05 5.288886e-05 -2.5711596e-05)
(-0.00010355667 1.9943002e-06 5.8266319e-05)
(-0.00013693981 5.3315381e-06 9.8256328e-05)
(-0.00011897047 2.3913165e-06 6.8470707e-05)
(-0.00011664749 6.3356891e-06 7.7915618e-05)
(-0.00019069887 5.3686663e-06 0.00011883164)
(-0.00021474917 6.901056e-06 0.00012301832)
(-0.00014331683 9.955783e-06 9.911362e-05)
(-0.00013542874 1.3115852e-05 9.6913083e-05)
(-0.0001285094 9.8665535e-06 9.2026828e-05)
(-0.00012173354 6.7289683e-06 8.4164191e-05)
(-0.00011267881 1.0826101e-06 7.9579204e-05)
(-0.00021444103 -3.2208388e-06 0.000119034)
(-0.0001215117 4.6775627e-06 8.8332587e-05)
(-0.00012183001 7.5329747e-06 8.3205357e-05)
(-0.00012592214 1.1033993e-05 9.733909e-05)
(-0.00012171349 1.243081e-05 9.338939e-05)
(-0.00013098393 6.3767384e-06 9.901814e-05)
(-0.0001248889 8.0370168e-06 7.0916895e-05)
(-0.00012792928 5.1412299e-06 7.0021549e-05)
(-0.00016666799 1.3586838e-05 0.00011572514)
(-3.3229458e-05 5.4509283e-05 -1.1709105e-05)
(-0.00015888112 1.4692457e-05 0.00011118377)
(-0.00012222812 2.3332922e-06 6.8429031e-05)
(-0.00019947693 -3.7096973e-06 0.00011575697)
(-0.00010847472 2.3021326e-06 5.960202e-05)
(-0.00013581297 1.1477446e-05 7.3546435e-05)
(-0.0001133527 1.4264574e-06 6.0204498e-05)
(-0.00012289828 4.1408267e-06 7.3148696e-05)
(-0.00012428385 6.2945313e-07 6.6965216e-05)
(-9.9092461e-05 -1.1930456e-05 8.6459781e-05)
(-0.00012574496 -1.6621069e-06 6.9728823e-05)
(-0.00020562173 8.3303318e-05 2.7276853e-05)
(-8.9269108e-05 -1.7015436e-05 8.7568415e-05)
(-0.00011783922 6.253636e-06 6.2361354e-05)
(-0.00012663233 8.4571242e-06 9.7231428e-05)
(-0.0001107354 -3.0751997e-06 5.9181011e-05)
(-0.00022006287 8.2470266e-06 0.00013222224)
(-0.00010057161 -1.6283392e-07 5.1157446e-05)
(-0.00010811581 -5.052518e-06 5.5423135e-05)
(-0.00012362607 1.6931379e-06 7.3025742e-05)
(-2.3962281e-05 4.7863489e-05 -2.969716e-05)
(-0.00013417968 1.9391997e-06 7.3144754e-05)
(-0.0002420759 -1.366771e-06 0.00013748447)
(-0.00013762002 -3.1064261e-06 7.0509065e-05)
(-6.9922133e-05 1.5802105e-06 5.560284e-05)
(-0.00014671031 6.1832943e-06 7.6044305e-05)
(-0.00014047601 7.0214604e-06 7.503278e-05)
(-0.00013689246 3.3905695e-06 7.0012553e-05)
(-0.00024948366 7.4146166e-06 0.00014098825)
(-0.00013414939 3.0249677e-06 7.4417722e-05)
(-0.00023611989 6.5699902e-06 0.00013232686)
(-0.00014166954 3.8840956e-06 7.3446888e-05)
(-0.00011915154 2.718116e-06 6.2567197e-05)
(-0.00012578606 -1.2894607e-06 6.3837269e-05)
(-0.00012913697 3.1898495e-06 6.629176e-05)
(-0.00014013624 7.15111e-06 7.6732646e-05)
(-0.00014355552 1.2539207e-05 0.0001044413)
(-0.00012447126 7.4931892e-06 6.7057457e-05)
(-0.00019731468 5.6474423e-06 0.00011822176)
(-0.000148451 7.3375229e-06 7.7019737e-05)
(-0.00014081044 4.3452741e-06 7.017405e-05)
(-0.00024938162 2.0276037e-06 0.00015039552)
(-0.0001446725 4.461958e-06 7.6434185e-05)
(-8.708306e-05 -2.5012952e-05 8.6872951e-05)
(-0.00020143249 -5.6284367e-06 0.00011408168)
(-0.00013802566 1.2154803e-05 0.0001012015)
(-0.00014414055 1.961709e-06 7.5750937e-05)
(-0.00020532253 -5.5925767e-06 0.00010751455)
(-0.00023007678 7.6529188e-06 0.00013834583)
(-0.00014501815 9.0138578e-06 7.2705407e-05)
(-0.00013119968 -1.1465147e-06 6.572741e-05)
(-0.0001269088 -1.9091518e-06 6.5406428e-05)
(-0.00014418833 1.0661128e-05 0.00010828966)
(-0.0001505844 1.1683249e-05 0.00010637805)
(-0.00010526724 3.9657842e-06 5.5891365e-05)
(-6.6053798e-05 -2.5009577e-05 6.7947982e-05)
(-0.00011703337 2.0033897e-06 5.9880727e-05)
(-0.00018937658 5.3010687e-06 0.00011474051)
(-0.00020015817 5.0361867e-06 0.00012137381)
(-0.00013437878 -1.4838929e-06 6.5923509e-05)
(-0.00014442197 4.0575451e-06 6.8668543e-05)
(-0.00012686516 7.3769985e-07 6.7536362e-05)
(-0.00013075305 2.9431685e-08 6.2455309e-05)
(-0.00014417975 5.1421282e-06 7.9330897e-05)
(-0.00012770058 2.9608383e-06 6.405893e-05)
(-0.0001239035 4.5978876e-07 6.8045228e-05)
(-0.00021038031 -9.0869598e-06 0.00011660974)
(-0.00021215259 8.4072081e-06 0.00012609826)
(-0.00015307292 3.7646278e-06 7.5998419e-05)
(-0.00013371521 -9.2074206e-07 6.3397372e-05)
(-0.00016014885 5.9552252e-07 8.3352435e-05)
(-0.00013790793 4.6041486e-06 6.8908443e-05)
(-0.00015030995 1.2052203e-05 0.00011263242)
(-0.00013092769 -9.9398334e-07 6.3124438e-05)
(-0.0001525349 1.0675558e-05 7.1986589e-05)
(-0.00015732726 6.3205571e-06 7.6835161e-05)
(-0.00016271868 3.9124252e-06 8.3432317e-05)
(-0.00032892358 4.8895717e-05 6.8151419e-05)
(-8.562538e-05 -1.83836e-05 4.8893744e-05)
(-0.0002198925 -9.5676102e-06 0.00012365467)
(-9.4061202e-05 -5.955312e-06 5.1445418e-05)
(-0.00016950277 2.1219211e-05 0.00011714013)
(-0.00015352447 1.2036798e-05 0.00010509196)
(-0.00012821693 4.8779579e-06 7.2761712e-05)
(-0.00012402611 3.3717538e-06 7.2031796e-05)
(-0.00027257773 5.798723e-05 5.7222963e-05)
(-0.00038689458 7.094185e-05 7.3190317e-05)
(-8.2490553e-05 -1.2422064e-05 9.6961175e-05)
(-0.00025148405 5.9461847e-05 5.373743e-05)
(-0.0001092002 7.7769707e-05 -2.9920839e-06)
(-0.00017928891 5.8519608e-05 1.8394636e-05)
(-0.00014410037 3.4156471e-06 6.6540086e-05)
(-0.00014302475 2.7729899e-06 6.5448536e-05)
(-0.00014415323 -1.0162302e-07 6.8878454e-05)
(-8.483517e-05 -1.249932e-05 9.7103232e-05)
(-0.00016065223 1.6333602e-05 0.00010973196)
(-0.00016369279 1.8638173e-05 0.00010932834)
(-0.00016240425 5.5754402e-06 7.7909395e-05)
(-0.00014500695 1.904556e-06 7.2056077e-05)
(-0.00019138396 1.9915003e-05 0.00012815875)
(-0.00019757022 -9.3383631e-07 0.00010300183)
(-0.00014886806 7.0562497e-06 6.8281054e-05)
(-0.00014834694 3.2716581e-06 6.7349441e-05)
(-9.3668148e-05 8.5159183e-05 1.637864e-06)
(-0.00016864547 1.5588023e-05 0.00011613824)
(-0.0001670731 1.4150519e-05 0.00011741398)
(-0.00019388587 1.7466057e-05 0.0001318172)
(-0.00019949308 -9.2164583e-06 0.00010465832)
(-0.00014926049 2.5497065e-06 7.0392308e-05)
(-0.00015182134 -3.9182194e-06 8.7177337e-05)
(-0.00015015971 -4.2262383e-06 7.4448145e-05)
(-8.4559553e-05 7.9319462e-05 -2.3450464e-06)
(-0.00016036959 4.9553582e-06 6.8909329e-05)
(-0.00016102967 7.7201122e-07 7.0638408e-05)
(-0.00016471129 9.02626e-07 7.6728773e-05)
(-0.00015207551 -2.6390606e-06 6.6386699e-05)
(-0.00015368933 -8.3502216e-07 6.3389404e-05)
(-0.00017545948 3.7015964e-06 7.7241822e-05)
(-0.00018294721 8.5438572e-06 7.8892699e-05)
(-0.00016922806 1.8588668e-06 6.8153072e-05)
(-0.0001750511 9.6646007e-06 7.1582711e-05)
(-8.6133002e-05 -1.7167246e-05 9.0182313e-05)
(-0.00016230887 4.6393412e-06 6.3988856e-05)
(-8.4175642e-05 -2.2061368e-05 8.5191933e-05)
(-0.00018830208 9.3369076e-06 7.3646255e-05)
(-7.8963699e-05 -2.313827e-05 8.5297155e-05)
(-0.00019843744 1.8939596e-06 7.9504197e-05)
(-0.00018838141 4.1967595e-06 7.843687e-05)
(-0.0001519887 1.1144906e-06 5.8692018e-05)
(-0.00017864668 2.5884694e-06 6.9567284e-05)
(-0.00020229858 2.442738e-06 8.1266869e-05)
(-0.00020840349 9.9125699e-06 8.2883516e-05)
(-6.0952689e-05 -1.7192454e-05 1.9819341e-05)
(-7.0974998e-05 -2.6648289e-05 6.4050418e-05)
(-0.00020098646 4.8958999e-06 7.4688369e-05)
(-0.00020823404 1.0367071e-05 7.7804047e-05)
(-0.00021485026 7.4067378e-06 7.8833364e-05)
(-0.00022942011 8.8172364e-06 8.1390564e-05)
(-0.00023718067 1.1904366e-05 8.545617e-05)
(-0.00022251912 8.0256362e-06 8.033386e-05)
(-0.00011310693 -1.6633411e-05 4.8792093e-05)
(-0.00010378704 4.7658214e-06 6.0863396e-05)
(-0.00025311996 8.1417443e-06 8.7723468e-05)
(-0.00025963866 1.1473012e-05 8.7019216e-05)
(-0.00010950347 7.1165883e-06 6.3829133e-05)
(-0.00021768707 2.2753028e-06 0.00012359743)
(-9.4136375e-05 6.7158767e-06 5.5276365e-05)
(-0.00024694626 4.2746272e-06 8.6204767e-05)
(-0.00023867091 6.6427772e-06 7.7156914e-05)
(-0.00024459032 5.0960944e-06 8.8098939e-05)
(-0.00026329112 3.2321194e-06 8.5132205e-05)
(-0.00026891775 2.7958325e-06 8.8016295e-05)
(-0.00025373284 7.6300946e-06 8.9282285e-05)
(-0.00022079147 1.1517716e-05 0.0001290649)
(-0.00026260063 4.5974641e-06 8.2848554e-05)
(-0.00023000469 1.5209591e-05 7.4753136e-05)
(-0.00027646009 7.2387746e-06 9.0192211e-05)
(-0.0002999445 1.515753e-06 9.6613316e-05)
(-0.00027905272 6.3880783e-06 8.567675e-05)
(-0.0002945306 8.0185138e-06 9.352493e-05)
(-0.00023969535 -7.1452399e-08 8.1200328e-05)
(-0.00030557408 9.5120527e-06 9.4331145e-05)
(-0.00027874968 -7.0220198e-07 9.2861326e-05)
(-6.9551494e-05 -8.0744275e-06 3.27711e-05)
(-0.00031072721 1.4066882e-05 9.4124003e-05)
(-0.00025766924 -1.0670295e-07 8.0734886e-05)
(-0.00031818932 4.2063557e-06 0.00010369813)
(-0.00022328044 -6.1017434e-06 0.00011599584)
(-0.00028748854 -5.6504476e-06 9.120456e-05)
(-0.00031764263 -5.6796762e-06 9.7328433e-05)
(-0.00010537958 7.1264972e-05 -2.0550628e-06)
(-0.0001511728 -7.8965794e-06 8.247731e-05)
(-0.00032267852 1.5025056e-05 9.5677246e-05)
(-0.00033049897 1.9927909e-06 9.6672386e-05)
(-0.00015777314 5.8201501e-05 8.7775657e-06)
(-0.00019288811 3.6442921e-06 7.3313508e-05)
(-0.00023034187 7.4402134e-06 0.00013327758)
(-0.00026490251 9.3763115e-06 0.00014985628)
(-0.00033778945 4.3053879e-06 0.00010019739)
(-0.00012922193 6.2743669e-05 -1.0395569e-06)
(-0.00020704937 -4.0525738e-07 7.8389019e-05)
(-0.00014956568 9.1991386e-08 5.2947861e-05)
(-0.00026311016 3.1296864e-06 7.6109076e-05)
(-0.00032420728 -4.319266e-06 9.8572468e-05)
(-0.00023175148 1.2037356e-05 7.2726377e-05)
(-0.00020086399 2.9309386e-06 7.2737898e-05)
(-0.00026556037 -2.0860356e-06 7.5751082e-05)
(-0.00027012514 -8.2053404e-09 0.00014781615)
(-0.00022581222 3.5514507e-06 8.5906369e-05)
(-0.00022136637 7.7882624e-06 6.9605731e-05)
(-0.00020891366 1.318611e-05 7.2495392e-05)
(-6.8986338e-05 -2.2180649e-05 6.2200591e-05)
(-0.00032450659 -1.7629163e-06 9.6512238e-05)
(-0.00033451617 -8.1694759e-06 0.00010066753)
(-0.00020226279 -7.712501e-06 0.00011723625)
(-0.00016368903 7.1987963e-07 7.4824033e-05)
(-0.00025258854 1.5619817e-05 8.218724e-05)
(-0.00025194767 -1.1311557e-05 7.6735799e-05)
(-0.00027946673 -2.2335519e-06 9.3214597e-05)
(-0.00019006157 -7.0148357e-06 0.00010681386)
(-0.00016897472 4.1869803e-06 7.5763188e-05)
(-0.00024115153 -6.602981e-06 0.00013812169)
(-5.7899713e-05 -2.2456351e-05 4.4562241e-05)
(-0.00017111967 2.0856713e-06 6.7568373e-05)
(-0.00016137055 -9.9071818e-06 8.8226675e-05)
(-0.00027751706 -1.3927267e-06 9.5974769e-05)
(-0.00025964115 -1.4242241e-05 8.2360873e-05)
(-7.7754296e-05 -2.5804888e-05 6.2472724e-05)
(-0.00018564714 4.8222712e-06 6.9989355e-05)
(-0.00022122638 9.1895429e-06 0.00012919337)
(-0.00032813509 -5.1761536e-06 0.00010264286)
(-0.00019609986 -8.432463e-06 0.00010443879)
(-0.00022598709 -8.2629946e-06 0.00011939419)
(-0.00021477446 -1.1742125e-05 7.7399973e-05)
(-0.00020101072 2.9829961e-05 7.3277437e-05)
(-0.00023215011 -1.5958311e-05 7.9081588e-05)
(-0.00014954571 1.5066671e-06 7.1421217e-05)
(-0.00018150134 -3.06697e-06 0.00010230826)
(-0.00024497969 -9.7225938e-06 0.00010584958)
(-0.00033233348 -3.1155615e-06 0.00010406531)
(-0.00025473099 2.4293912e-06 7.2291363e-05)
(-0.00029729965 -6.0084358e-06 9.7090505e-05)
(-9.2157938e-05 -1.9397066e-05 4.30013e-05)
(-0.00035019053 -1.3825573e-05 0.00011127185)
(-0.00021317201 -6.292013e-06 9.8207327e-05)
(-0.00011607532 4.0460741e-06 6.2599652e-05)
(-0.00030068779 -3.3459237e-06 9.37073e-05)
(-0.00027055788 -1.9958865e-05 8.9210733e-05)
(-0.00021789829 -1.7641068e-06 8.6092956e-05)
(-0.00016683361 4.8439844e-07 8.1771449e-05)
(-0.00021098098 -3.881428e-06 0.00010266541)
(-0.0002493586 -2.4458067e-06 0.00011290354)
(-0.00023224121 -7.8082255e-06 0.00012775944)
(-0.00029127452 -1.4834334e-05 0.00010550122)
(-0.0001849787 1.46174e-06 7.7722526e-05)
(-0.00016753482 -5.1444798e-06 9.4269382e-05)
(-0.00024841028 1.3593816e-06 0.00011826718)
(-0.00028916513 -8.9481221e-06 0.00011027374)
(-0.00025464257 6.4136656e-06 0.00013956186)
(-0.00016399899 5.9051978e-06 7.1820037e-05)
(-0.0001417102 6.211894e-06 6.075245e-05)
(-0.00024742344 7.664336e-06 0.00013783587)
(-0.00011079612 5.0519806e-06 5.8290931e-05)
(-0.00031994148 -1.0064203e-05 0.00010645269)
(-0.00015208489 4.7673308e-06 6.2469042e-05)
(-0.00024556831 1.2285199e-07 9.3713027e-05)
(-0.0002391478 6.3341709e-06 0.00014191071)
(-0.00018083765 1.0023041e-05 6.2676294e-05)
(-0.00025477558 1.847678e-05 7.764588e-05)
(-0.00024108692 -1.4267847e-06 9.7817157e-05)
(-0.000287192 -5.6661431e-06 9.7784057e-05)
(-0.00029426831 3.4011193e-06 9.8111757e-05)
(-0.0002196561 -1.1318672e-05 8.9922469e-05)
(-0.0002933031 -1.8191015e-05 0.00010486445)
(-0.00030339147 -1.9609258e-05 0.00010068898)
(-0.00025429434 3.5456568e-06 0.00014731384)
(-0.000293273 1.088649e-05 8.5422597e-05)
(-0.00026449197 1.468044e-05 7.6587456e-05)
(-0.00022276065 4.6601637e-06 0.0001292385)
(-0.00019801347 -5.3562837e-06 0.0001072798)
(-0.00031426804 8.9062418e-06 8.4329933e-05)
(-0.00023604336 5.9627435e-06 0.00014134361)
(-0.00016922721 -4.5829716e-06 0.00010936613)
(-0.00019010841 2.7479636e-06 0.00011621567)
(-8.29026e-05 -1.8177438e-05 4.2354775e-05)
(-0.00018981578 1.212775e-05 7.2019985e-05)
(-0.00018895324 5.5450105e-06 0.00011568494)
(-0.00020059616 7.8779514e-06 0.00011888445)
(-9.0557642e-05 -2.2495941e-05 4.6654377e-05)
(-0.00019830505 -2.9639468e-06 7.8103007e-05)
(-0.00025350183 1.6382926e-05 8.0452183e-05)
(-9.2206947e-05 -1.5688306e-05 4.0751588e-05)
(-0.00032856672 1.0473123e-05 9.1358066e-05)
(-0.00026050332 2.2154896e-05 8.0437954e-05)
(-0.00014871116 -8.6449607e-06 9.0813769e-05)
(-0.00019002976 -1.5878442e-06 0.00012848755)
(-9.8906657e-05 -2.2137336e-05 4.5335464e-05)
(-0.00025099884 2.457864e-05 8.4106055e-05)
(-0.00018328371 -1.3649944e-05 8.7979403e-05)
(-0.0001978518 -1.1695205e-05 9.7858722e-05)
(-0.00017090429 1.6146213e-06 0.00011597589)
(-0.00015675116 -1.7313327e-06 7.3429188e-05)
(-0.00036692921 -1.1148169e-05 0.00012075007)
(-0.0003639845 -1.0818652e-05 0.00011903336)
(-0.00030371666 1.5942674e-05 8.334229e-05)
(-0.00019061323 -1.9728168e-06 0.00013150348)
(-0.00024710962 1.6089153e-05 7.246317e-05)
(-0.00018110542 -4.1329559e-06 0.0001259617)
(-0.00016638089 2.1094594e-06 0.00012503663)
(-0.00017159438 2.0584945e-06 0.00012548546)
(-0.00020176933 3.1867335e-06 0.0001163801)
(-0.00019638216 -7.6859185e-06 0.00011751802)
(-0.00021705124 -8.3813278e-07 9.8788393e-05)
(-0.00016730291 -3.1949763e-06 0.00012621936)
(-0.00021193082 -4.2136595e-06 0.00010476473)
(-0.00019732565 -2.3003089e-06 0.00012336022)
(-0.00017944471 1.0499266e-05 0.00012819373)
(-8.5712134e-05 -2.0050929e-05 4.8099984e-05)
(-0.00024085514 -5.7740855e-07 9.8183285e-05)
(-0.00017372881 5.3470237e-06 8.3199572e-05)
(-0.00024251644 -4.2336641e-06 0.00012348231)
(-0.00011681514 3.3096043e-06 4.8518689e-05)
(-0.00025622007 -9.2276439e-06 0.00012093417)
(-0.00027638029 2.060294e-05 7.6266339e-05)
(-0.00017189278 1.3034119e-05 6.6095616e-05)
(-0.00017176964 -4.1604412e-06 7.3171128e-05)
(-0.00024131823 1.2300288e-06 0.00012991172)
(-5.6068686e-05 4.4673637e-07 3.0802309e-05)
(-0.00025265124 7.3620728e-05 6.5305513e-05)
(-0.0001905893 -5.8506027e-06 0.00010612054)
(-0.00018079561 -2.9995045e-06 0.00010293432)
(-0.00016596246 -7.7843098e-06 9.1856722e-05)
(-0.00018739705 -7.3696959e-06 9.8582154e-05)
(-0.00022629874 -8.359095e-06 0.00012734093)
(-0.00010603663 -2.5425845e-05 4.9383882e-05)
(-0.00035403013 -7.4529942e-06 4.8152978e-06)
(-0.00021724008 -9.6408442e-06 0.00011900718)
(-0.00020784796 -1.3315151e-07 0.00011371528)
(-0.00018971172 -1.2096388e-05 0.00010953416)
(-0.0002115694 1.0992993e-06 0.00011553406)
(-0.00022708624 -5.8199664e-06 0.00012386687)
(-0.00019113043 -6.8237038e-06 0.00010636896)
(-0.00024999492 1.0404003e-05 0.0001443282)
(-0.00023248432 1.1155291e-05 0.00013756243)
(-0.00026861439 1.2915091e-05 0.00016199625)
(-0.00027450375 1.3201805e-05 0.00016033227)
(-0.00022306872 9.0351367e-06 0.00013813042)
(-0.00019809349 -6.6543941e-06 0.00010601335)
(-0.0002329778 1.3069286e-05 0.00013634715)
(-0.00030778543 1.4220966e-05 0.00016704665)
(-0.00019890131 -7.5108074e-06 0.00010953239)
(-4.1633624e-05 5.23287e-05 -2.58948e-05)
(-0.00026738876 5.7007123e-06 0.00014563746)
(-0.00026695407 3.8691525e-06 0.00014402122)
(-0.00019507835 -2.3346382e-06 0.00010792043)
(-0.00020629197 -7.5013822e-06 0.00011236262)
(-0.00020907573 -9.4563641e-06 0.00011774568)
(-0.00021360701 -9.1829128e-06 0.00011731879)
(-0.00023550028 -5.7336791e-06 0.00013269908)
(-0.00021191092 -8.131958e-06 0.00011457778)
(-0.00020948553 -4.148625e-06 0.00011144444)
(-0.0002033376 -6.897147e-06 0.00011531044)
(-0.00024026078 -8.3707809e-06 0.00012773031)
(-0.00025620418 -2.2122664e-06 0.00014791381)
(0.00012231307 -7.4145835e-05 -4.6334701e-05)
(-0.00026678497 2.3465769e-06 0.00014472915)
(-0.00026136201 1.0040261e-05 0.00014960957)
(-0.00024497514 1.3547926e-05 0.00014323175)
(-0.00022742573 -8.6257672e-06 0.00012599486)
(-0.00022505521 -6.8468607e-06 0.00012157615)
(-0.00020444624 -4.8069463e-06 0.00011110747)
(-0.00023387251 -3.2725868e-06 0.00012865923)
(-0.00023229481 -6.4415551e-06 0.00012255079)
(-0.00019909241 -7.9817161e-07 0.00011272055)
(-0.00023342061 -6.0149288e-06 0.0001241972)
(-0.00017609784 4.5930952e-06 8.6405334e-05)
(-0.00022097069 -4.965465e-06 0.00012539626)
(-0.0002661108 -3.0665624e-07 0.00014914801)
(-0.00026619118 1.3853232e-05 0.00015128605)
(-0.0002368666 -6.2488327e-06 0.00013117706)
(-0.00018214465 3.9078778e-07 8.1111388e-05)
(-0.00022605156 -3.9865741e-06 0.00012409478)
(-0.00025507616 1.2115679e-05 0.00015258618)
(-0.00024793613 -1.055309e-06 0.00012923215)
(-0.00025089454 9.5539131e-06 0.00014273068)
(-0.00024102832 1.3375687e-05 0.0001433198)
(-0.00020589074 5.6281344e-06 0.00012294972)
(-0.00021193027 7.3670443e-06 0.00012779318)
(-0.00025922635 -4.0485001e-07 0.00013949256)
(-0.0002086895 4.2368505e-06 0.00012534591)
(-0.00026211048 1.1439311e-05 0.00014862744)
(-0.00021741163 5.182767e-06 0.00012198227)
(-0.00017560636 4.2041249e-06 0.00010565098)
(3.1765156e-05 3.143674e-05 -3.3201509e-05)
(-0.00017856237 5.2456342e-06 0.00010099161)
(-0.00017570363 4.5410896e-06 0.00010551416)
(-0.00026482825 -1.7964995e-06 9.5243892e-05)
(-0.00017166709 2.5160791e-06 7.6979588e-05)
(-0.00024431835 6.6550871e-06 0.00014210585)
(-0.0002412902 -4.9122441e-06 8.5680107e-05)
(-0.0002593659 8.1455859e-06 0.00014821073)
(-0.00019524984 4.5310796e-06 0.00011473702)
(-0.00024382098 8.7137671e-06 0.00013984244)
(-0.000243588 1.2405563e-05 0.00014159044)
(-0.00020364487 -2.1834831e-06 9.0639728e-05)
(-0.00022842716 -1.6587157e-06 8.7799297e-05)
(-0.0002063592 5.9595098e-06 0.00011770197)
(-0.00019172158 2.9141133e-06 0.0001152141)
(-0.00024997546 8.4803614e-06 0.0001434914)
(-0.00019837024 5.5472469e-06 0.00011849777)
(-0.00027542141 2.4093323e-05 6.7399482e-05)
(-0.00018765322 8.0548155e-07 0.00011410933)
(-0.0001997578 3.9718971e-06 0.00012098814)
(-0.00018840387 1.4490456e-06 0.00011122935)
(-0.0002061965 2.6655877e-06 0.00012453551)
(-0.00022269429 5.6441991e-06 0.0001276933)
(-0.0002353093 6.7761576e-06 0.00013834649)
(-0.00020483167 5.5985326e-06 0.00011926788)
(-0.00038786984 5.4053372e-05 0.00021697207)
(-0.00022182927 3.7798406e-06 0.00013207489)
(-0.00019330999 2.2632607e-06 0.00011491786)
(-7.6165797e-05 -2.6031067e-05 5.5269086e-05)
(5.9895576e-06 4.7818573e-06 1.0151604e-05)
(-0.00021955911 -3.4989972e-05 1.6431211e-05)
(-0.00021507384 4.4895809e-06 0.00012778332)
(-0.00024169244 7.0358364e-06 0.00013781322)
(-0.00023514079 4.1958709e-06 0.00013815039)
(-0.00022230268 -8.5986427e-06 0.00013109502)
(-0.00020015555 2.7283318e-06 0.00011813151)
(-0.00019718574 5.3888924e-07 0.00011880719)
(-6.7742661e-05 -2.0812513e-05 3.6950787e-05)
(-0.0001608771 3.4607329e-07 7.7730492e-05)
(-0.00021185182 1.1455918e-06 0.00012423081)
(-0.0001930968 5.492628e-06 0.00011621563)
(-0.00019629485 1.0786485e-06 0.00011631591)
(-0.00021612742 -6.2611682e-06 0.00012770453)
(-0.00021605734 9.3927112e-07 0.0001202666)
(-0.00021508485 3.0019558e-06 0.00012313753)
(-0.00031513772 -1.198855e-05 0.00010985737)
(-0.0002216224 4.6520973e-06 0.00012675072)
(-0.00017811697 3.5129123e-06 0.00010450455)
(-0.00021562854 5.2193142e-06 0.00012961078)
(-0.00022980882 2.3604192e-06 0.00012875936)
(-0.00019530061 3.0805582e-06 0.00011273533)
(-0.00023591422 2.0353353e-06 0.00012843)
(-0.0002318033 -2.7158051e-06 0.00013408155)
(-0.00025771958 6.1858438e-06 0.00010065712)
(-0.00023441055 -1.0819594e-05 3.3723269e-05)
(-0.00028207461 -5.2852036e-06 9.7432343e-05)
(-0.00019874184 4.1979889e-06 0.00011288703)
(-0.00021757451 9.6176055e-07 0.00012556015)
(-0.00020177611 1.6587585e-06 0.00011567123)
(-0.00018696781 -1.9552591e-06 9.2369715e-05)
(-0.0001268612 -3.6432772e-06 5.5087395e-05)
(-0.00018881862 3.6521473e-07 0.00011183643)
(-0.0002296086 9.2044919e-07 0.00012659684)
(-0.0002994982 -2.1838748e-06 0.00010370593)
(-0.00020990743 -1.5871193e-06 9.0352527e-05)
(-0.0003073618 -7.26666e-05 1.0775853e-05)
(-0.00024036424 -2.8012765e-06 0.00013508343)
(-0.0001921336 -2.417149e-06 0.00010856701)
(-0.00027861779 5.1725745e-06 0.00015482902)
(-0.00019491308 1.5020595e-06 0.00011138308)
(-0.0002245159 -6.8598806e-07 0.00012885578)
(-0.00022873377 -2.1508034e-06 0.00013101235)
(-0.00028932452 -5.4787573e-05 7.0934522e-06)
(-0.00021111179 5.4250678e-06 0.00013100055)
(-0.0001703671 -1.5763004e-06 0.00010551386)
(-0.00023564414 2.6415033e-07 0.00013081172)
(-0.00019657222 -1.9513405e-06 0.00010802908)
(-0.00018929582 -1.9645024e-07 0.00010935517)
(-0.00024265994 2.1899531e-06 0.0001322667)
(-0.00019898149 5.5043123e-06 0.00011331555)
(-0.000233332 3.0663835e-07 0.0001296548)
(-0.00026337216 -1.2932861e-05 0.00012923202)
(-0.00016665148 -1.020973e-05 6.6132676e-05)
(-0.00019631092 2.6419958e-06 0.00010955578)
(-0.0002421094 3.4190471e-06 0.00013133965)
(-0.00027207195 -5.4295216e-06 0.00013037948)
(-0.00025737901 -9.7364539e-06 0.00011327885)
(-0.0001857482 2.7365147e-07 0.00010599876)
(-0.00019325123 1.6649326e-06 0.00011572933)
(-0.00021775461 1.1268654e-05 0.0001278457)
(-0.00020778061 5.2981951e-06 0.00012762759)
(-0.00020036454 2.3905496e-06 0.00010999155)
(-0.0001825735 3.1012135e-06 0.0001091806)
(-0.0001895149 2.3832008e-06 0.00010583607)
(-0.0001911142 -3.5984589e-07 0.00010686978)
(-0.0001987801 1.2981524e-06 0.00010912941)
(-0.0001709433 -1.8966502e-06 8.5531488e-05)
(-0.00014528244 1.157288e-06 8.849369e-05)
(-0.00019738925 4.080363e-06 0.00011246147)
(-0.00019045253 -1.6506891e-06 0.00010646389)
(-0.00018741224 -8.7095394e-08 0.00010857549)
(-0.00014498787 -9.1754448e-06 6.0274655e-05)
(-0.00023852355 1.262482e-06 0.00013054673)
(-0.00017422361 -1.3251746e-06 9.8308721e-05)
(-0.00021051532 -1.4589189e-06 0.00011445197)
(-0.00022747249 -1.0876845e-06 0.00012821975)
(-0.0002128576 9.2540141e-07 0.00011387239)
(-0.00018948962 2.6839775e-06 8.447943e-05)
(-0.00018215727 1.1409875e-06 0.00010252711)
(-0.00018037667 -3.5661318e-06 9.8352082e-05)
(-0.00017851943 5.5108122e-06 0.00010804289)
(-0.00020660156 -2.7494668e-06 0.00010993177)
(-0.00045708232 6.4861587e-05 0.00023721882)
(-0.00017810404 -5.196846e-06 9.5503394e-05)
(-0.000210032 8.8495829e-06 0.00013054854)
(-0.00017696663 -6.6520238e-07 9.5203203e-05)
(-0.00017900151 1.9719727e-06 0.00010846194)
(-0.00021343675 6.4965497e-07 0.00011700866)
(-0.00019681982 6.3913826e-06 0.00011620836)
(-0.00016866417 -2.0318032e-06 9.6329815e-05)
(-0.00017987827 5.9940576e-06 0.00010286745)
(-0.00014164779 -5.6907315e-08 7.1895753e-05)
(-0.00020551718 -2.4314205e-06 0.00011395664)
(-0.00015836101 1.21602e-06 9.799837e-05)
(-0.0001799191 4.6729075e-06 0.00010091518)
(-0.00020106137 -1.7653753e-06 0.00010807253)
(-0.0001813702 2.8359164e-06 9.8618644e-05)
(-0.00021244554 2.0007385e-07 0.00010964299)
(-0.00023471937 2.7771138e-06 0.00013460853)
(-0.00023842199 2.8870318e-07 0.00013146258)
(-0.00015770373 1.1880569e-05 0.00010789959)
(-0.00022911622 1.2114117e-05 0.00013687811)
(-0.00017313417 5.4728291e-06 0.0001078366)
(-0.00013424357 5.4143857e-06 8.9282245e-05)