/*--------------------------------*- C++ -*----------------------------------*\
  =========                 |
  \\      /  F ield         | OpenFOAM: The Open Source CFD Toolbox
   \\    /   O peration     | Website:  https://openfoam.org
    \\  /    A nd           | Version:  11
     \\/     M anipulation  |
\*---------------------------------------------------------------------------*/
FoamFile
{
    format      ascii;
    class       volVectorField;
    location    "10000";
    object      wallShearStress;
}
// * * * * * * * * * * * * * * * * * * * * * * * * * * * * * * * * * * * * * //

dimensions      [0 2 -2 0 0 0 0];

internalField   uniform (0 0 0);

boundaryField
{
    wall-fluid_domain
    {
        type            calculated;
        value           nonuniform List<vector> 
34505
(
(0.00020482185 -1.3805618e-06 0.00017344243)
(0.00022992393 -2.208979e-05 0.00015385857)
(0.00037341519 7.1581321e-05 0.00024728743)
(0.00025558685 -2.2842785e-05 0.00016165056)
(0.00024412492 -8.6842529e-07 0.00015872402)
(0.00034926281 5.7990543e-05 0.00030857713)
(0.00019551563 -1.0494159e-05 0.00013039352)
(0.00020953782 7.6507673e-06 0.00017848072)
(0.00025574023 -9.8789077e-06 0.00019531104)
(3.5409506e-05 1.3349028e-05 -1.9046133e-05)
(0.00035226287 5.6421063e-05 0.00030952553)
(0.00038483877 -7.7000957e-05 0.00024826802)
(0.00023393701 1.0267668e-05 0.0001864317)
(0.00027811594 1.0290633e-05 0.00021699827)
(0.00029048781 -8.9792201e-06 0.00018856443)
(0.00025489976 -1.5059187e-05 0.00015658992)
(0.00030078997 1.5768103e-06 0.00019522382)
(0.00026409117 1.3013618e-05 0.00017960998)
(0.00026357266 -1.059891e-05 0.00015264204)
(0.00033147725 -2.83488e-05 0.00016642872)
(0.00021059092 5.5854973e-07 0.00017954917)
(0.00021992051 -9.2066596e-06 0.00016132538)
(0.00030651829 3.1383291e-05 0.00015191933)
(0.00020268866 -1.6886842e-05 0.00015001145)
(0.00026645207 -1.9564205e-06 0.00016867132)
(0.00017982671 -2.0610501e-05 0.00014174774)
(0.00020011959 -1.641101e-05 0.00015373545)
(-1.020143e-05 -3.007228e-06 -5.5189814e-06)
(0.00024827305 -2.265467e-05 0.00015477564)
(-1.473122e-05 -2.4693002e-05 -3.1015826e-05)
(0.0004072076 5.096064e-05 0.00021861506)
(0.00023364355 1.009766e-06 0.00015328745)
(0.00014463351 1.6221076e-06 0.00013849397)
(0.00037782905 -4.8678157e-05 0.00020138231)
(0.00015724541 4.0207441e-06 0.00014132763)
(-1.1896361e-05 -2.5226494e-05 -2.5420084e-05)
(0.00025085796 -2.3423974e-06 0.00017411794)
(0.0003844508 7.3728271e-05 0.00027600441)
(0.00037059094 7.7173966e-05 0.00028461026)
(0.00027526817 2.5289815e-06 0.00021489637)
(0.0001323027 9.7721332e-06 0.00012016252)
(0.00020938939 3.0720998e-06 0.00014659384)
(-1.3596397e-05 -2.7722382e-05 -1.8983059e-05)
(-1.8135526e-05 -1.0435173e-05 -3.3438573e-05)
(-2.5265596e-05 2.4964334e-06 -3.0117185e-05)
(0.0002722494 -7.884691e-06 0.00019662244)
(-1.2917733e-05 3.6407925e-06 -1.3002831e-05)
(0.00019989863 1.5946152e-05 0.0001697762)
(0.00029078987 1.0009546e-05 0.00018394581)
(0.00032392237 -6.856491e-05 0.00023104931)
(0.00021289627 7.3662335e-06 0.00017351046)
(-9.5824986e-06 -7.4279247e-06 -9.9961298e-06)
(0.00032010519 -6.6181421e-05 0.00024294814)
(0.00022391231 9.9206196e-07 0.00020987172)
(0.00023892665 -3.3701071e-06 0.00016027421)
(0.0002944332 5.6147729e-06 0.00020654934)
(0.00019783906 1.2736423e-05 0.00015995561)
(0.00023850117 4.1471742e-06 0.00017968118)
(-6.890946e-06 4.0159313e-06 -5.7196075e-06)
(0.00024173675 1.5733241e-05 0.00018433973)
(-1.1173466e-05 -1.2635119e-05 -1.4066455e-05)
(0.00027533155 1.1932638e-05 0.00019467758)
(0.00029895896 6.5744014e-06 0.00021491414)
(-1.086971e-05 1.097454e-05 -2.2229475e-05)
(0.0001396379 1.0650739e-05 0.00012312239)
(-4.5821692e-06 3.1019999e-07 -5.8813426e-06)
(0.00020691002 1.8344229e-05 0.00015747437)
(0.00013751111 9.8792563e-06 0.00012817049)
(0.00022272803 1.114758e-05 0.00016694823)
(0.00041181446 6.6798122e-05 0.00021985948)
(0.00034790388 -5.8479763e-05 0.00019434323)
(0.00032155793 5.8019251e-05 0.00019434864)
(0.00042587743 -6.8847104e-05 0.00024184751)
(0.00032582444 -1.0387134e-05 0.0001677718)
(0.00030965646 1.7905107e-05 0.0001528295)
(0.00014558416 -1.088126e-05 0.00014294679)
(0.0003263742 4.2421672e-05 0.00017036353)
(1.1546953e-05 1.4373387e-05 -9.2327171e-06)
(0.00029310459 -3.5425627e-05 0.00016063517)
(0.00015492666 -1.2272855e-05 0.0001396921)
(0.00029518347 -4.1574406e-06 0.00017563534)
(0.00015693528 -1.6737059e-05 0.00013057822)
(0.00010004014 -1.6965246e-05 9.4675119e-05)
(-1.4627793e-05 -1.617802e-05 -1.2882608e-05)
(0.00037755085 7.3885738e-05 0.00025053919)
(0.00025450199 -4.0845453e-06 0.00017034504)
(0.00027991879 -5.0091457e-05 0.00024657361)
(0.0004122085 -6.9437736e-05 0.00035075973)
(0.00016741662 -2.1284824e-05 0.00013914655)
(0.00038824187 -7.0107499e-05 0.0002454757)
(5.3600359e-05 5.1736442e-06 3.6882278e-05)
(-1.5996602e-05 -2.7089409e-05 -3.4246983e-05)
(0.00031706233 3.0233772e-05 0.00016156782)
(0.00028474042 -2.5291992e-05 0.0001527749)
(5.2280105e-05 -2.8274417e-06 3.2980523e-05)
(7.8978445e-05 -1.5527178e-05 6.148703e-05)
(0.00028967416 4.7962179e-05 0.00016037314)
(4.2650731e-05 1.036618e-06 1.2751085e-05)
(0.00032587219 4.994484e-05 0.00018960869)
(-1.4121374e-05 -2.1542786e-05 -4.1682105e-05)
(-1.0062784e-05 -2.7912674e-05 -2.0759237e-05)
(0.00036088125 6.2108066e-05 0.00022594049)
(-1.7565038e-05 -1.1180215e-05 -4.319676e-05)
(-1.3599649e-05 -3.4907214e-05 -3.0118388e-05)
(0.00035074945 -5.1759476e-05 0.00019557756)
(0.00033434558 -5.1238004e-05 0.00018904311)
(0.00042941583 -8.280063e-05 0.00025426174)
(9.4765929e-05 6.3012621e-07 8.7328093e-05)
(-1.4823145e-05 7.9591569e-07 -1.2841443e-05)
(0.00016490464 -2.1470674e-05 0.0001464249)
(-1.5719229e-06 -2.3907301e-06 -3.89881e-06)
(-2.9333978e-05 2.1686435e-06 -1.286182e-05)
(-2.0458016e-05 1.2594073e-05 -1.6099476e-05)
(-1.2442362e-05 -1.0871886e-05 -6.9154915e-06)
(0.00017888751 -1.8287765e-05 0.00014644867)
(9.5787828e-05 3.3785437e-06 9.0091468e-05)
(0.00029227169 3.7195562e-05 0.00016235319)
(0.00010508101 -2.7088476e-06 7.5911549e-05)
(0.00039531247 -4.8804062e-05 0.00020999241)
(-7.0432687e-06 -1.9097918e-05 -3.5982096e-05)
(0.00033166048 4.0253573e-05 0.00019163787)
(0.00032286851 3.9719062e-05 0.00018013168)
(-1.2615745e-05 -3.9570739e-05 -3.2601421e-05)
(-2.3253644e-05 -1.0672293e-05 -3.9513881e-05)
(0.00040218799 -4.8942505e-05 0.00020697877)
(0.00032315151 4.8583778e-05 0.0001878275)
(-8.1300146e-06 -2.6463483e-05 -1.653018e-05)
(0.00033762691 -4.8877782e-05 0.00019133381)
(0.00026002802 4.0070576e-05 0.0001748569)
(0.00040179671 -5.4075464e-05 0.0002141632)
(0.00034945781 -6.0688974e-05 0.00020833358)
(9.860977e-05 -1.2854328e-05 8.7602421e-05)
(0.00033628446 5.5421005e-05 0.00020406865)
(-1.4473333e-05 -2.807297e-05 -1.1934683e-05)
(-1.4370883e-05 -1.4359617e-05 -5.4261764e-06)
(0.00039968871 -6.0550642e-05 0.0002230055)
(-8.1873141e-06 -2.8873259e-05 -3.6512616e-05)
(-8.7413286e-06 -2.1332811e-05 -3.2900161e-05)
(3.8290202e-05 6.5697672e-06 1.0458823e-05)
(-1.7016297e-05 -1.1660282e-06 -3.9211255e-05)
(-8.1391637e-06 -3.827157e-05 -2.4146798e-05)
(-1.1356702e-05 -3.2839814e-05 -1.6993824e-05)
(-7.4102032e-06 -3.0452458e-06 -2.4777637e-07)
(-2.6613929e-05 -1.6112294e-05 -8.5520416e-06)
(-1.7015586e-05 -2.0670072e-05 -5.8621064e-06)
(-9.1936532e-06 -9.3933743e-06 -8.5382993e-06)
(-9.3498736e-08 1.6673573e-05 -5.6216725e-06)
(-1.008421e-05 -2.254628e-05 -1.1811833e-05)
(-1.1303677e-05 -2.3929597e-05 -1.1744481e-05)
(-2.8079112e-06 -3.8166644e-05 -3.713119e-05)
(-9.956627e-06 -1.5671468e-05 -3.599707e-05)
(-7.6496378e-06 -3.7582827e-05 -3.6374106e-05)
(-6.122439e-06 -4.2842045e-05 -3.0157296e-05)
(-1.1949076e-05 -4.1639265e-05 -2.4440752e-05)
(-6.3527591e-06 -3.1877557e-05 -4.0287098e-05)
(-1.1070795e-05 -4.6255095e-05 -3.4581119e-05)
(-4.1316929e-06 -3.770364e-05 -3.5313957e-05)
(-7.4488142e-06 -4.7324552e-05 -3.1331285e-05)
(-6.5354317e-06 -1.6266168e-05 -3.3212761e-05)
(-1.0300704e-05 -3.9856724e-05 -2.1229505e-05)
(-8.1019363e-06 -2.9462589e-05 -3.8812162e-05)
(-5.2548494e-06 -4.3786287e-05 -3.0261963e-05)
(-1.2283432e-05 -4.0510444e-05 -2.1964986e-05)
(-4.732441e-06 -3.8109151e-05 -3.3346688e-05)
(-4.552273e-06 -4.3817058e-05 -3.3478252e-05)
(-4.6430297e-06 -8.1820783e-06 -3.2425711e-06)
(-9.7664284e-06 -2.9991764e-05 -1.3309805e-05)
(-1.3151232e-05 -6.0305113e-06 -3.2075888e-05)
(-1.2732008e-05 -3.1739491e-05 -1.3585975e-05)
(8.1973392e-07 -3.588669e-05 -4.0860925e-05)
(-4.5170275e-06 -2.8547821e-05 -4.7673107e-05)
(-8.5847735e-06 -1.232115e-05 -8.1272285e-06)
(-1.4776173e-05 -2.10847e-05 -5.9266717e-06)
(-1.3033844e-05 -1.2631992e-05 -4.2788775e-06)
(-3.1554588e-05 -3.2020748e-05 -7.4112386e-06)
(-1.3051734e-05 -2.573479e-05 -9.115263e-06)
(-1.3710691e-05 -2.1453374e-05 -6.9665519e-06)
(-1.1766222e-05 -4.145422e-05 -2.3414789e-05)
(-6.090366e-06 8.7290414e-06 1.5586688e-06)
(-8.8742465e-06 -2.2112032e-05 -8.3027722e-06)
(-1.1352683e-05 -4.0009888e-05 -2.089261e-05)
(0.00043332905 -7.2288885e-05 0.00040346076)
(-1.2318182e-05 -2.9869466e-05 -1.2491455e-05)
(-2.5276333e-05 1.4261517e-05 -1.4969931e-05)
(-2.2932404e-05 -2.2383976e-05 -2.2206165e-06)
(0.0004175343 -6.2651467e-05 0.00039491206)
(-1.5718077e-05 -3.6801157e-05 -1.5996068e-05)
(-7.582118e-06 -1.693505e-05 -8.0127963e-06)
(-1.5063777e-05 -2.3611267e-05 -6.2160814e-06)
(-1.4491484e-05 -2.8214305e-05 -1.194144e-05)
(-1.2560215e-05 -2.6934114e-05 -1.1010232e-05)
(-1.7679474e-05 -3.5635499e-05 -1.4747505e-05)
(-1.6896589e-05 -3.0979398e-05 -8.6948913e-06)
(-9.5616588e-06 -1.9651919e-05 -6.9760891e-06)
(-1.3857285e-05 -2.2606204e-05 -5.6422843e-06)
(2.1250331e-05 1.7397368e-05 7.5168418e-07)
(-1.2978887e-05 -1.7945544e-05 -4.755831e-06)
(-9.9891075e-06 -1.3810894e-05 -1.9445066e-06)
(0.0003566203 5.5473111e-05 0.00033792918)
(-6.8337207e-06 -1.6634877e-05 -6.1747764e-06)
(0.00037976103 4.423595e-05 0.00035988741)
(-9.8940734e-06 -9.8527979e-06 1.6557789e-06)
(-2.3382399e-05 -3.1059467e-05 -7.0719419e-06)
(-5.0050377e-06 -1.1912262e-05 -4.3477888e-06)
(-1.6689941e-05 -3.1839095e-05 -9.3639819e-06)
(-4.1300174e-05 -4.5768095e-05 -4.963131e-06)
(-2.3972262e-05 -3.2261201e-05 1.0975107e-05)
(-3.4313228e-05 -4.1172658e-05 -1.4707431e-05)
(-2.955307e-05 -4.3211855e-05 -4.0246922e-07)
(-2.7892911e-05 1.0682966e-05 -2.9249875e-05)
(-2.5707015e-05 -3.9799691e-05 -1.5932952e-05)
(-3.7826178e-05 -4.4510417e-05 -8.0625944e-06)
(-3.8362054e-05 -5.0387067e-05 -1.2911955e-05)
(-3.0709989e-05 -4.2730377e-05 -1.1153296e-05)
(-3.5099001e-05 -6.2160504e-05 1.2615008e-05)
(-4.0742444e-05 -6.0017656e-05 -1.9744979e-05)
(-5.1095614e-05 -6.5699829e-05 -1.4975012e-05)
(-4.4415162e-05 -6.3992415e-05 -4.1037932e-06)
(-5.0550207e-05 -6.0545503e-05 -1.7138218e-05)
(-5.9941999e-05 -6.5283926e-05 -1.3816673e-05)
(-1.3966924e-05 -2.3247434e-05 2.3765218e-05)
(-6.4726456e-05 -8.0523133e-05 -3.5244686e-05)
(-2.353761e-05 -5.5404744e-05 2.3692858e-05)
(-3.8620716e-05 -7.2810431e-05 5.5586228e-07)
(-5.6548957e-05 -8.0781417e-05 -1.2140464e-05)
(-6.9186819e-05 -6.9973221e-05 -3.1729812e-05)
(-5.6672759e-05 -6.5645833e-05 -2.8939488e-05)
(-1.1120942e-05 -4.9347149e-05 2.1400125e-05)
(-3.0769261e-05 -6.8407839e-05 1.8010312e-05)
(-1.2058766e-05 -5.3767108e-05 3.085742e-05)
(-8.9122009e-05 -8.8001246e-05 -5.8599126e-05)
(-7.7869959e-05 -7.9295693e-05 -1.1520457e-05)
(-8.5147349e-05 -8.4314063e-05 -4.2053159e-05)
(-9.4499084e-05 -7.5638729e-05 -5.4588788e-05)
(1.352709e-05 1.43377e-05 -4.2037877e-06)
(-7.0362376e-05 -7.0665114e-05 -4.8443643e-05)
(9.3686915e-05 1.7130734e-05 6.2494386e-05)
(0.00027523378 -1.1353573e-05 0.00026707832)
(0.00014293161 4.1009034e-06 0.00011455673)
(0.00013687189 1.2268585e-05 0.00010061494)
(0.00022878743 -4.2594269e-06 0.00016601514)
(0.00019197037 -1.6731101e-05 0.00014255985)
(0.00027663555 5.6674552e-05 0.00023525714)
(0.0002454703 -1.0225932e-05 0.00022064191)
(0.00040296897 -9.0155018e-05 0.0003224224)
(0.00020407262 -1.5692935e-05 0.00019218032)
(0.00021220331 -2.4539262e-06 0.00021322111)
(0.00011808903 1.2124937e-05 7.7012493e-05)
(0.00034155879 5.9827315e-05 0.00028873278)
(0.00015513514 3.3146642e-06 0.00012696236)
(0.00034372535 6.6506272e-05 0.0002486163)
(0.000264855 1.6470665e-05 0.00023661738)
(0.00030457137 -2.0681961e-06 0.00014904544)
(0.00027778854 5.6002698e-05 0.00022651642)
(0.00034320089 -6.6545302e-05 0.00023623417)
(0.00022834876 -6.3362967e-06 0.00022491763)
(0.00032006084 -3.2887294e-06 0.00019036739)
(0.00016019987 -2.4480503e-05 0.0001217079)
(0.00042951191 -8.565673e-05 0.00031694394)
(0.00024595218 4.2925164e-06 0.00017054387)
(0.00024128463 -7.0436247e-06 0.00023410045)
(6.9731067e-05 2.9990943e-05 5.5717611e-05)
(0.00040330965 7.3490189e-05 0.0002672788)
(0.00026237669 -6.6188377e-06 0.00014880213)
(0.00030678051 -4.243878e-06 0.0001925946)
(0.00022018478 1.7238819e-05 0.00021132803)
(0.0003795662 -7.164053e-05 0.0002454168)
(-7.5547597e-06 -2.0557329e-06 -1.2062403e-06)
(5.61418e-06 -3.7509455e-05 -3.8016104e-05)
(-1.7270879e-06 -4.6415292e-05 -3.0772168e-05)
(0.00022696813 1.606145e-05 0.00023176062)
(7.9146506e-05 1.8406284e-05 5.4844627e-05)
(0.00028895619 -6.5111856e-07 0.00028766171)
(0.00010230571 6.6268267e-06 8.8101095e-05)
(0.00015232534 5.65694e-06 0.00012111473)
(8.1541697e-05 2.4684878e-05 7.5141114e-05)
(-1.1728598e-05 -4.2061174e-05 -2.1699319e-05)
(-7.6993319e-06 -2.4883373e-05 -4.5134141e-05)
(0.00023341098 4.316199e-06 0.00017474733)
(0.0002838807 -5.9135648e-05 0.00024133278)
(5.1837732e-05 3.1607966e-05 5.8559796e-05)
(0.00026742088 1.8043875e-05 0.00023824964)
(-1.8151543e-05 -3.8869767e-05 -1.8984794e-05)
(-9.0106143e-06 -5.3320704e-06 -5.5121051e-06)
(0.00016963103 -5.9396111e-06 0.00017172173)
(-2.2407199e-05 2.1335558e-06 -3.3955013e-05)
(0.00024357046 2.2990411e-05 0.00023156571)
(7.8561866e-05 2.587168e-05 8.3360239e-05)
(0.00031334073 2.0352668e-05 0.00015343754)
(6.1437898e-05 2.920839e-05 4.7306448e-05)
(0.00039427652 -1.9504256e-05 0.00039820832)
(0.00025538251 1.5965693e-05 0.00023691322)
(0.00036583556 6.7586126e-06 0.00038204158)
(0.00031367658 3.4346303e-05 0.00016529522)
(0.00021754696 -9.5112926e-08 0.00021948629)
(-2.1150214e-05 1.2606411e-05 -3.9100248e-05)
(0.0002762436 1.7578813e-05 0.00023021894)
(0.00023637622 1.1067041e-05 0.00022929788)
(0.00037478612 -2.7601909e-05 0.00019449752)
(-1.5883916e-05 -7.5368408e-06 -3.0698068e-05)
(0.00037771755 4.097568e-05 0.00021330029)
(0.00035168031 3.0735316e-05 0.00017463862)
(0.00022520347 2.0489306e-05 0.00018770746)
(0.00013846028 2.9985147e-06 9.2507133e-05)
(-4.3475694e-06 -6.2664203e-06 -4.1626048e-06)
(0.00034118671 -2.6123682e-05 0.00018194476)
(0.00014489888 1.0582281e-05 0.0001054983)
(-7.8325118e-05 -6.2281605e-05 -5.7199199e-05)
(0.00014099598 2.9717976e-06 0.00010519688)
(-9.9275512e-05 -6.2545667e-05 -6.949839e-05)
(0.00019691842 1.9046974e-05 0.00016940971)
(0.00013154761 6.7894868e-06 0.00010107625)
(9.9282588e-05 2.1553536e-05 7.0313587e-05)
(0.00029480734 -4.5199173e-06 0.00027140768)
(0.00037267828 5.1244598e-05 0.00022623632)
(0.0001297006 5.3922912e-06 9.9811995e-05)
(7.3944794e-05 3.7647542e-05 6.6523866e-05)
(0.00023098895 1.2474253e-05 0.00022912967)
(0.00013919508 7.4229208e-06 0.0001004457)
(0.00014570454 1.034429e-05 9.9133864e-05)
(6.5266465e-05 1.6144532e-05 4.6983447e-05)
(0.00026001468 -1.6209123e-06 0.00022672539)
(0.00034304853 -6.062225e-06 0.00018281071)
(0.00020191483 4.4517073e-06 0.00015830926)
(0.00024272661 -4.6150751e-06 0.00024134096)
(0.00027631063 -9.4340788e-06 0.00025671149)
(0.00023640213 -5.1558507e-06 0.00021253029)
(0.00014695383 1.922011e-05 0.00010477213)
(0.00024480002 -4.9372422e-06 0.0002406149)
(0.00010766661 1.6597366e-05 7.2159666e-05)
(0.00020440615 -4.4754497e-06 0.00020647452)
(0.00017198544 -3.2214845e-06 0.000158048)
(6.2784011e-05 2.4938909e-05 4.1341845e-05)
(-8.6905364e-06 -9.5653758e-06 -4.5406643e-06)
(0.00020765176 -5.6845993e-06 0.00018611076)
(4.2052134e-05 4.1892705e-05 5.5007631e-05)
(0.00020417139 -8.4820749e-06 0.00019525185)
(0.00013593605 6.3271646e-06 9.7247835e-05)
(0.00031656827 -9.0220008e-06 0.00031305076)
(0.00027790819 1.9340179e-05 0.00024211278)
(-3.1752303e-05 -7.8893149e-05 2.3115622e-05)
(-4.6119118e-05 -6.4107155e-05 4.307803e-06)
(5.4833097e-05 2.8809398e-05 6.7492859e-05)
(0.0003782731 -4.431891e-05 0.00019498118)
(5.0194625e-06 -5.0362332e-05 3.7034064e-05)
(8.2046585e-05 2.600808e-05 7.8668024e-05)
(0.00011516421 2.2897059e-05 8.1162765e-05)
(9.6111825e-06 7.4266617e-06 5.118836e-06)
(4.9367362e-05 2.6206069e-05 4.1660918e-05)
(5.9449428e-05 2.9393355e-05 7.208067e-05)
(0.00027200814 1.5771071e-05 0.00021620882)
(0.00027685586 1.5510816e-06 0.00027446816)
(0.00039997589 -6.5861354e-05 0.00022178352)
(0.00023063832 -1.070037e-05 0.00023415639)
(-8.6491041e-06 -9.0766172e-06 -9.9969105e-07)
(1.4039365e-06 -1.7176311e-05 1.4926032e-05)
(0.00023478471 9.460595e-06 0.00024594738)
(0.00022451424 1.5658471e-05 0.00019422455)
(4.2868328e-05 3.814863e-05 6.2690224e-05)
(0.00037043508 1.7188254e-05 0.00039057685)
(0.00038494112 -2.3492459e-05 0.00040448936)
(0.0002454965 1.8064541e-05 0.00023657274)
(0.00012354667 6.684374e-06 0.00011983542)
(3.9103093e-06 -3.1846068e-05 4.3856771e-05)
(0.00027045754 4.4827387e-06 0.00027102109)
(6.0065911e-05 2.7887445e-05 6.9059753e-05)
(7.6958687e-05 2.2144676e-05 0.00011492284)
(0.00021548435 1.6281635e-05 0.00021179019)
(5.7683281e-05 3.4267232e-05 7.7757829e-05)
(0.00014591092 -2.5999529e-07 0.00010119771)
(0.0002868025 4.8032827e-06 0.00029349867)
(5.0507199e-05 3.8771235e-05 5.8643867e-05)
(0.0002185804 1.7348708e-05 0.00021346109)
(9.606766e-05 3.5802086e-05 7.7200516e-05)
(0.00032475517 2.6879389e-06 0.00033118499)
(9.1622241e-06 -3.312246e-05 -4.1474782e-05)
(2.8542345e-06 -3.7239515e-05 -2.9226313e-05)
(-1.1418073e-05 -4.9149726e-05 -2.3813068e-05)
(0.00023039863 -8.9459476e-06 0.00022530916)
(0.00028404613 1.273397e-05 0.00022753642)
(-9.5093338e-06 -4.5519204e-05 -2.3594931e-05)
(0.00027394894 2.0662216e-05 0.00023087193)
(0.00030007984 8.7467281e-06 0.00022165855)
(3.0763815e-06 -1.5690871e-05 -4.027858e-05)
(5.208753e-05 3.4214176e-05 5.5454352e-05)
(4.617881e-05 3.3186447e-05 4.7044852e-05)
(9.8626972e-05 2.8064737e-05 6.9213454e-05)
(5.9790065e-05 3.1301593e-05 4.4052219e-05)
(0.00025142608 -9.6910424e-06 0.00021973545)
(-2.0899565e-05 6.4944471e-06 3.049045e-07)
(5.4320453e-05 2.8789215e-05 4.5035378e-05)
(0.00012645368 1.2847136e-05 0.00011720776)
(4.7789575e-05 3.016529e-05 3.9178907e-05)
(0.0003002266 1.6885753e-05 0.00029282558)
(0.00024695147 5.445532e-06 0.00024917043)
(8.0170369e-05 2.2557422e-05 5.8345722e-05)
(0.00028515883 9.8233936e-06 0.00029008573)
(4.7032238e-05 3.7498033e-05 4.8948976e-05)
(0.00030375951 6.4843305e-06 0.00030117491)
(0.000282308 1.7068739e-05 0.00028817129)
(4.4657509e-05 3.0835737e-05 4.3599225e-05)
(5.297393e-05 3.6457596e-05 5.7483946e-05)
(4.4421712e-05 3.9627043e-05 5.2563332e-05)
(0.00010332553 2.7260347e-05 0.00011567763)
(0.00025032712 1.0125672e-05 0.00025158987)
(5.8241508e-05 3.7418824e-05 5.7106151e-05)
(0.00026541573 8.9162204e-06 0.00020456914)
(6.7559991e-05 2.3818716e-05 4.4534539e-05)
(-2.3193667e-05 -3.9223298e-05 -2.1706364e-05)
(-1.7916639e-05 -2.9791004e-06 -3.2141546e-05)
(2.4324191e-05 1.1590316e-05 3.9820106e-06)
(0.00020948803 6.163231e-06 0.00016669232)
(0.00035171891 2.6156774e-06 0.00037695527)
(0.00035796703 -5.2902106e-06 0.00037869727)
(-1.6442519e-05 1.7922913e-05 -2.8098963e-05)
(0.00034873472 7.7683114e-05 0.00026325041)
(0.0002541973 1.0353599e-05 0.00019587111)
(0.00033960732 6.7200336e-05 0.00027766332)
(-2.9822443e-05 1.4672823e-05 -2.4600406e-05)
(9.7405982e-05 1.3426846e-05 0.00012049387)
(0.00034545622 -7.1332875e-05 0.00024488953)
(0.00042906182 -8.4413903e-05 0.00031007322)
(0.00020019027 3.9353526e-06 0.00016975499)
(-1.9371986e-05 -6.943249e-05 4.2895691e-05)
(4.8348793e-06 -5.3449144e-05 6.475579e-05)
(0.00028324856 8.7948287e-06 0.00018942118)
(0.00025434977 -5.0657935e-06 0.00021422301)
(5.4734132e-06 -3.1246488e-05 5.3040641e-05)
(0.00023929219 1.6427038e-05 0.00016895281)
(-2.591316e-05 -3.8340822e-05 -2.5223785e-05)
(0.00019195067 1.7502446e-05 0.00015696218)
(0.00038854555 3.1262245e-05 0.00019702345)
(0.0003081082 4.3642204e-06 0.00014883093)
(2.5496658e-05 -1.1875276e-05 4.1656804e-05)
(0.00038508556 3.4105391e-05 0.00020171647)
(0.00038116286 5.0836031e-05 0.00021946711)
(1.3537799e-05 -2.2021252e-06 2.7650549e-05)
(-3.413764e-05 -4.3995047e-05 -2.5203434e-05)
(0.00028127426 4.1289208e-06 0.0001857186)
(3.1691759e-06 -4.5079958e-05 -3.0109928e-05)
(0.00033699601 1.824774e-05 0.00016229426)
(2.5337093e-06 -4.7883784e-05 -2.5463183e-05)
(1.0747522e-05 -3.1707444e-05 -3.3615954e-05)
(-1.040472e-06 -4.4885516e-05 -2.5025234e-05)
(1.2127199e-05 -3.8985569e-05 -3.6871588e-05)
(-6.5310867e-05 -6.5461934e-05 -4.6593532e-05)
(0.00023366893 2.1835622e-06 0.00012663615)
(0.00031587605 5.9034052e-06 0.00015526388)
(-7.3229468e-05 -7.3249579e-05 -4.9127766e-05)
(0.00033176612 -1.1075519e-05 0.00018408398)
(-1.7250743e-05 -3.4835447e-05 -1.7566931e-05)
(1.9154715e-06 -4.7130051e-05 -1.8883686e-05)
(1.9870363e-05 -3.8963963e-05 -2.4897766e-05)
(1.5871863e-05 -4.3095865e-05 -2.4817438e-05)
(3.6021813e-07 -4.3779429e-05 -1.9729981e-05)
(-1.4595754e-05 -4.9597355e-05 -2.8500346e-05)
(7.1486404e-06 -2.8112065e-05 -3.4206538e-05)
(1.5966052e-05 -3.8581314e-05 -1.6958962e-05)
(-1.4682839e-05 -4.5582107e-05 -2.3591284e-05)
(0.0003797303 -2.9389079e-05 0.00019103596)
(1.6182408e-05 -3.4379667e-05 -2.4510989e-05)
(-4.7477565e-06 -4.4532e-05 -1.4697376e-05)
(-5.5620441e-06 -4.6943339e-05 -2.8354566e-05)
(8.0560121e-06 -4.7895631e-05 -1.4080412e-05)
(3.0246623e-05 -4.3077683e-05 -2.0421795e-05)
(-2.0523544e-05 -3.4266355e-05 -2.045885e-05)
(2.0033529e-05 -2.5358812e-05 -1.8459234e-05)
(3.4499542e-05 -4.1928524e-05 -2.3747116e-05)
(0.00033411835 -1.7499875e-05 0.0001685833)
(-2.2890688e-05 -3.6961287e-05 -2.573095e-05)
(0.00032336881 1.7108264e-06 0.0001772608)
(-2.2324791e-05 -3.5424893e-05 -2.2263099e-05)
(-4.9752102e-05 -4.085882e-05 -4.3532416e-05)
(-4.0543201e-05 -3.7258885e-05 -3.3377222e-05)
(0.00034104166 -5.3083258e-06 0.0001803561)
(0.00038135448 -3.429119e-05 0.00019321091)
(1.5160803e-07 4.0136258e-06 -3.1125073e-05)
(0.00038444012 -4.8082293e-05 0.00020323859)
(-6.5578927e-05 -4.5806561e-05 -5.6440588e-05)
(3.9320058e-06 -1.6727344e-05 -2.4117158e-05)
(-1.5165022e-05 -1.5408306e-06 -2.0194119e-05)
(-1.0114045e-05 -5.2667831e-05 2.0261313e-05)
(-1.3511987e-05 1.6636642e-06 -2.348344e-05)
(1.07406e-05 -2.2444838e-05 -2.1430998e-05)
(-3.4408233e-05 6.230984e-06 -2.1941524e-05)
(-2.3424937e-05 1.0199888e-05 -2.8193741e-05)
(-8.8873928e-06 -3.5772173e-05 -1.6959214e-05)
(2.3920904e-06 -1.0390329e-05 3.6630264e-06)
(-8.3815413e-06 -6.7938632e-06 -1.4874164e-05)
(-1.9920584e-05 -3.2794553e-05 -2.3921965e-05)
(-2.820154e-05 1.7593139e-05 -1.2846406e-05)
(1.632038e-05 -1.3514135e-05 -9.6720692e-06)
(-2.9214783e-06 6.5202488e-06 -1.0257422e-05)
(3.0635989e-05 -1.3700847e-05 2.1942047e-05)
(-1.6674988e-05 6.7906264e-06 9.2942632e-06)
(1.6675996e-05 -4.8025999e-05 6.4222701e-05)
(3.9959495e-05 -1.0620273e-05 2.5717007e-05)
(3.6176952e-05 -2.9606558e-05 7.7138774e-05)
(-3.1360873e-05 -4.0101647e-05 -2.1816348e-05)
(-0.00010648931 -5.7912852e-05 -8.6310342e-05)
(4.021779e-05 -2.2000497e-05 8.579758e-05)
(4.1715114e-05 -8.2038743e-06 4.9709333e-05)
(4.8794242e-05 -1.71704e-05 7.1831605e-05)
(5.5679729e-05 -9.026357e-06 6.3714261e-05)
(7.7145399e-05 -2.0063833e-05 8.7581452e-05)
(2.5958503e-05 6.6320767e-06 2.567806e-05)
(6.1591615e-05 -8.2813098e-06 6.8862465e-05)
(4.2470562e-05 1.6115301e-06 4.2092051e-05)
(5.958757e-05 6.7381549e-06 4.681305e-05)
(4.7553731e-05 1.2939958e-05 2.7795835e-05)
(7.0790627e-05 1.7039571e-05 4.8268097e-05)
(0.00037207521 1.9664812e-05 0.00017787432)
(0.00031478189 1.4999783e-05 0.00015309789)
(0.00034577286 1.4223742e-05 0.00016465603)
(0.00034309072 2.7290705e-05 0.00018196148)
(0.00032635298 1.8574617e-05 0.00016521696)
(0.00036228731 1.7731253e-06 0.00017548621)
(0.00034661052 -3.7689974e-06 0.00016694263)
(0.00030649386 2.5174779e-06 0.00014840084)
(0.00033381345 1.7444789e-05 0.00017547457)
(0.00034185169 -2.4764882e-06 0.00016563018)
(0.00038868976 1.8179763e-05 0.0001971207)
(0.00032647422 1.054227e-05 0.00015962421)
(0.00041298503 4.214345e-05 0.00023381241)
(3.8178238e-05 -5.4309994e-05 -3.6259743e-06)
(-4.6037904e-05 -5.530586e-05 -3.3373066e-05)
(0.00016394221 1.2838717e-05 0.00013493855)
(1.1534443e-05 -4.6373568e-05 -7.6892873e-06)
(0.00040337046 3.1397273e-05 0.00021100288)
(-7.622729e-05 -6.3330234e-05 -5.6970634e-05)
(0.00031071981 -1.4163623e-05 0.0001554552)
(0.00031130931 -1.0545115e-05 0.00015467796)
(-7.2041045e-05 -5.5833174e-05 -5.6664488e-05)
(0.00035971966 -3.1255731e-06 0.00017543212)
(0.0003076505 -1.2043016e-05 0.00015549928)
(0.0003087157 -9.2551816e-06 0.00015435414)
(0.00032267294 -3.1195512e-06 0.00016317199)
(0.00038538291 1.6922471e-05 0.00019237722)
(0.00040436574 3.6335153e-05 0.00020901784)
(3.9250787e-05 -3.550462e-05 -2.0518942e-05)
(0.00025848067 -3.688135e-06 0.00013122773)
(0.00032419048 1.5891616e-06 0.00016631422)
(0.00041750438 5.1742161e-05 0.00024008116)
(-4.4521958e-05 -4.1057453e-05 -3.7170787e-05)
(-8.2430381e-05 -4.961524e-05 -6.4138189e-05)
(0.00034104789 -1.3094172e-05 0.00017497052)
(-1.0363591e-05 -2.9518328e-05 -1.6348646e-05)
(0.00033494172 -8.9928465e-06 0.00017128184)
(0.00028696719 1.9576121e-06 0.00018357003)
(0.00024674136 -4.0056251e-06 0.00023641524)
(-6.4655948e-05 -3.7690277e-05 -5.6602918e-05)
(0.00034618393 -1.3764737e-05 0.00017211405)
(0.00041198129 -3.0800609e-05 0.00020213755)
(0.00034685189 -1.7237475e-05 0.00017360848)
(0.00032971021 1.2378228e-06 0.00017152714)
(0.0003311004 -4.9160816e-06 0.00016379058)
(0.00034671033 4.4803293e-06 0.00018114956)
(0.00038370708 -1.6181658e-05 0.00018731647)
(-4.9319681e-05 -2.9702331e-05 -4.7034166e-05)
(0.0002691699 1.9177329e-06 0.00014820536)
(0.0003662033 1.2391703e-05 0.00018445686)
(0.00038798552 -2.1278983e-05 0.00018881682)
(0.00034666381 1.3785537e-05 0.00019021712)
(0.00026266941 6.3913215e-06 0.00014400419)
(0.00033840439 9.5192177e-07 0.00019025227)
(0.00036058939 1.2613133e-05 0.00019567734)
(0.00032642221 1.0202609e-05 0.00018280884)
(0.00040866032 -4.6006036e-05 0.00020969013)
(0.0003639664 6.4187585e-06 0.0001818573)
(0.00025357978 -1.3518334e-05 0.00024934943)
(0.0003438346 1.4688217e-05 0.0002060567)
(0.00041868707 -4.0307086e-05 0.0002067887)
(0.00036031604 1.8816948e-05 0.00018937034)
(0.00032463866 1.1747701e-05 0.00019375085)
(0.00035805279 -1.0828588e-05 0.00017255931)
(0.00036041215 2.8500628e-05 0.00020725298)
(3.3316462e-05 -4.9292332e-05 -4.9705229e-06)
(5.1030517e-05 -4.1344635e-05 -5.2763107e-06)
(0.00034713863 7.7437185e-06 0.00020391504)
(0.00032892115 -6.9149295e-06 0.00031372764)
(0.00035881246 -4.0237547e-06 0.00017278727)
(0.00037561728 3.4947172e-05 0.00020547086)
(0.00038289469 -2.4184778e-05 0.00018766278)
(0.0003169363 1.3554698e-05 0.00017053363)
(8.7915285e-06 -3.6789348e-05 -9.8262963e-06)
(0.0003573794 2.5236577e-05 0.00020204123)
(0.0003588739 1.4528874e-05 0.00018414024)
(0.00037110937 3.9912265e-05 0.00021243429)
(5.4958211e-05 -4.035149e-05 -3.2594998e-06)
(0.0003509524 5.4686277e-06 0.00017049221)
(0.0003314814 2.845647e-05 0.00017529683)
(0.00029550592 1.8553134e-05 0.00018003374)
(0.00035443608 1.4487715e-05 0.0001729487)
(0.00033354865 1.984405e-05 0.00017577149)
(0.00031736512 1.6565116e-05 0.00019133994)
(0.00023648591 -8.7072195e-06 0.00022620625)
(-7.5794388e-05 -4.9867997e-05 -6.344938e-05)
(0.00036070966 3.1420128e-05 0.00021767263)
(0.00037292785 -1.7377631e-05 0.00017998305)
(-5.5027149e-05 -4.8734631e-05 -4.1827612e-05)
(0.00036625712 2.5924456e-05 0.00021357656)
(0.00036459649 3.4431975e-05 0.00021485406)
(0.00032519002 2.4995493e-05 0.00016268738)
(0.00036078458 -5.3986583e-06 0.00016661109)
(0.00035167467 1.4779305e-05 0.00016930906)
(0.00028730168 2.632461e-05 0.00016376864)
(0.00037175457 -4.9798128e-05 0.00020028841)
(0.0003480819 3.7775325e-05 0.00019455522)
(0.00024958241 1.082589e-05 0.00017099197)
(0.00032487708 2.0445677e-05 0.00016440118)
(0.00028164296 2.2367444e-05 0.00017418843)
(0.00037507304 -2.3130388e-05 0.00017584824)
(0.00027755245 2.5087875e-05 0.00017500542)
(0.00027990822 2.1410488e-05 0.00019862241)
(0.00038887514 -3.1693766e-05 0.00019275101)
(0.00032773132 6.907128e-06 0.0001516823)
(0.00025461861 2.8520975e-05 0.00019250702)
(0.00032679256 2.5125197e-06 0.00015787329)
(0.00038867013 -3.1159984e-05 0.00019006267)
(0.00029555236 -1.8817871e-05 0.00014460596)
(0.00032473364 3.8984979e-05 0.00020249537)
(0.00038411171 2.3732355e-05 0.00020489796)
(0.00033280163 2.6493018e-05 0.00021703783)
(0.00032446345 2.9980621e-05 0.00021806319)
(-9.1584548e-05 -3.9763878e-05 -7.1661559e-05)
(0.00020115502 1.9304285e-05 0.00013390263)
(-1.4897529e-05 -2.7128568e-05 -2.4921021e-05)
(-9.1542118e-05 -3.1508074e-05 -8.1994013e-05)
(0.00042048268 -4.5153364e-05 0.00022241423)
(0.00032020649 3.8022503e-05 0.0002243275)
(0.00030084625 3.0653785e-05 0.00020343193)
(-9.6124533e-05 -3.1211288e-05 -8.4867652e-05)
(-5.1643984e-05 -2.9674334e-05 -4.5635663e-05)
(2.8654164e-05 -4.5544278e-05 2.8746123e-06)
(0.00039717527 2.7309734e-05 0.00022026952)
(5.6155814e-05 -4.3715801e-05 7.9251787e-06)
(4.2749773e-05 -4.252847e-05 1.018631e-05)
(2.6871338e-05 -3.8250121e-05 -9.4990626e-07)
(-2.0174163e-06 -3.007357e-05 -1.1950774e-06)
(0.00030087702 1.3382548e-05 0.00018991008)
(1.9409971e-05 -3.7998662e-05 9.6854934e-06)
(4.7055333e-05 -3.804429e-05 6.874436e-06)
(-4.9161676e-05 -5.0466401e-05 -3.9463229e-05)
(3.9734686e-05 -4.3733195e-05 1.5721334e-05)
(8.5615073e-05 -2.1230933e-05 7.1876607e-05)
(-5.2622463e-06 -2.4075938e-05 -8.4860644e-06)
(1.8064045e-05 -2.8614682e-05 7.031863e-07)
(0.00028959359 1.9277164e-05 0.0001843916)
(6.7199218e-05 -3.9961452e-05 1.1583928e-05)
(6.6824174e-05 -2.0178807e-05 5.2267675e-05)