/*--------------------------------*- C++ -*----------------------------------*\
  =========                 |
  \\      /  F ield         | OpenFOAM: The Open Source CFD Toolbox
   \\    /   O peration     | Website:  https://openfoam.org
    \\  /    A nd           | Version:  11
     \\/     M anipulation  |
\*---------------------------------------------------------------------------*/
FoamFile
{
    format      ascii;
    class       volVectorField;
    location    "10000";
    object      wallShearStress;
}
// * * * * * * * * * * * * * * * * * * * * * * * * * * * * * * * * * * * * * //

dimensions      [0 2 -2 0 0 0 0];

internalField   uniform (0 0 0);

boundaryField
{
    wall-fluid_domain
    {
        type            calculated;
        value           nonuniform List<vector> 
50028
(
(0.00025464807 -3.6511809e-05 0.00035469316)
(0.00018202807 1.1799315e-07 0.0003066184)
(0.00023617427 -1.0226508e-05 0.00040016115)
(0.00023090631 -1.3995729e-05 0.00040347838)
(0.00029116473 -1.561087e-05 0.00031553583)
(0.00029563944 -1.469405e-05 0.00030546536)
(0.00029356384 -8.5692535e-06 0.0002987929)
(0.00026141209 3.4652322e-05 0.00028011093)
(0.00025904289 -2.9768509e-05 0.00034081965)
(0.00026955986 2.8423222e-05 0.00028277152)
(0.0002986474 2.1230515e-05 0.00030658713)
(0.00025954605 2.3235665e-05 0.00026218717)
(0.00027791806 2.943095e-05 0.0002972585)
(0.00029082965 1.8929289e-05 0.00030096628)
(0.00028805376 1.2609144e-05 0.00028963521)
(0.00029473173 1.4855511e-05 0.00029448734)
(0.00018714003 2.0123132e-05 0.00027930276)
(0.00019007746 2.758041e-05 0.00019802332)
(0.00024684792 2.0459417e-05 0.00026112762)
(0.00028738766 -2.1232999e-05 0.00047870068)
(0.00028010795 1.5954727e-05 0.00028004866)
(0.00029088786 3.0252825e-05 0.00033179387)
(0.000194417 1.9924387e-05 0.00018598984)
(0.00027736931 2.7350155e-05 0.00025683618)
(0.00027274507 2.4321366e-07 0.00026553239)
(0.00028387322 2.262435e-05 0.00029371219)
(0.00024522346 1.9941557e-05 0.00023910755)
(0.00026128915 5.9201244e-06 0.00025636077)
(0.00027094695 1.457342e-05 0.00027742417)
(0.00023735165 6.3799484e-06 0.00022848713)
(0.00026432847 5.492053e-06 0.00025645338)
(0.00025724005 1.1106653e-05 0.00025280444)
(0.00026638646 1.9938771e-05 0.00027450829)
(0.00026048783 -3.2934262e-06 0.00024912257)
(0.00028845089 4.342785e-06 0.00027965925)
(0.00029761955 1.124007e-05 0.00027781851)
(0.00017983376 -1.7869627e-05 0.00024010029)
(0.00026070505 -1.5861164e-06 0.00024860518)
(0.00021182169 3.3603729e-06 0.00027577868)
(8.2012193e-05 -1.9766952e-05 0.00021166786)
(0.00024792683 2.3055737e-05 0.00028031099)
(8.8533442e-05 2.4226429e-05 0.00025578917)
(7.2784092e-05 5.4098303e-05 0.00025074789)
(0.00011602101 2.6915005e-05 0.00026491024)
(0.00031529031 -4.7847761e-05 0.00034446123)
(8.0451671e-05 5.3766632e-05 0.00024394363)
(9.9561361e-05 6.7680618e-06 0.00021789447)
(0.00012028628 1.8862767e-05 0.00026322435)
(0.00031690799 -4.2891841e-05 0.00035778938)
(9.5877465e-05 2.3009042e-05 0.00024893392)
(3.4176285e-05 7.2717204e-05 0.00016801877)
(9.8465218e-05 2.8424501e-05 0.0002368639)
(2.3580317e-05 8.1183995e-05 0.00014965209)
(0.00013945508 1.2209069e-05 0.00026245664)
(6.2166638e-05 5.9456303e-05 0.0002215708)
(0.00013724037 -1.2776294e-06 0.00026724462)
(5.3283883e-05 7.3031681e-05 0.0002108456)
(0.00013172674 3.788614e-06 0.00028187539)
(0.00026105341 -4.7898601e-05 0.00031461405)
(0.00016364977 -1.3854248e-05 0.00027620611)
(0.00012586858 1.8603456e-06 0.00025457526)
(0.00022585402 5.9734261e-06 0.00025631259)
(0.0001506591 5.7191061e-07 0.00026025263)
(0.00027980344 -5.4010821e-05 0.00036793164)
(0.00029807639 -5.2796787e-05 0.00037545424)
(8.4268284e-05 5.1474351e-05 0.00018924843)
(0.00028306276 -2.0910998e-05 0.00047529889)
(0.00017552093 -6.9100186e-06 0.00025888556)
(0.00016886916 -1.2850241e-05 0.00026492559)
(0.0002160777 -3.407585e-06 0.00025333358)
(0.00026782359 -2.8718759e-05 0.00029481169)
(0.00019829483 -2.8713214e-05 0.00028332741)
(0.00031879073 -1.5501646e-05 0.0005341053)
(0.00025874823 -2.2875265e-05 0.00028229874)
(0.00018775366 -1.2087249e-05 0.00024856355)
(0.00011020183 4.3664621e-06 0.00019654198)
(8.8081915e-05 1.1069321e-05 0.00017594375)
(0.0002406848 -3.3155121e-05 0.00027655641)
(0.00016995277 -2.8438825e-05 0.00021807975)
(0.00020621987 -2.4062928e-05 0.00027214337)
(0.00018012558 -2.7096647e-05 0.00023297773)
(0.00020880948 5.9667019e-06 0.00025031714)
(0.00019406219 -4.7882578e-05 0.0002284994)
(0.00016156764 -2.1780096e-05 0.0002578936)
(0.00030375362 2.8576738e-05 0.00041257929)
(0.00019282191 -5.0455201e-05 0.00022048647)
(0.00018446775 -3.7023695e-05 0.00021353779)
(0.00019170441 -3.987993e-05 0.00020005791)
(0.00030652594 -1.5657593e-05 0.00052636613)
(0.00017257902 -5.2312785e-05 0.00020765467)
(0.00028772837 -4.7641568e-05 0.00033957204)
(0.00017663518 -5.2702416e-05 0.00016431361)
(1.0631012e-05 7.6213135e-05 0.0001532832)
(0.00016705333 -3.6827116e-05 0.00021998141)
(5.7958472e-05 5.0217337e-05 0.00017659865)
(0.00015783677 -6.7309987e-05 0.0001512422)
(0.00020890832 -2.0384394e-05 0.00026802448)
(0.00029359753 2.9970266e-05 0.00040205367)
(0.00017312133 -6.0190596e-05 0.00018137186)
(0.00020106614 -5.248983e-05 0.00020356243)
(0.00019054036 -3.0817537e-05 0.00022239896)
(6.5721972e-06 9.8361109e-05 0.00011736949)
(0.00028060669 3.9861369e-05 0.00039397302)
(0.00010998302 5.2448472e-06 0.00018184899)
(0.00029813993 3.1998505e-05 0.0003338506)
(-1.2112561e-05 8.8150677e-05 7.9709943e-05)
(0.00020321303 -4.1128751e-05 0.00020525524)
(0.00018840716 -3.1947366e-05 0.00023625661)
(0.00018607923 -3.5145463e-05 0.00020465438)
(0.00022075748 8.7626504e-08 0.00028424739)
(0.00016548835 -9.1734035e-05 0.00015233519)
(0.00015404619 -7.1727212e-05 0.00017744315)
(0.00013199867 -3.1789353e-05 0.00019908191)
(8.2814604e-05 1.3009678e-05 0.00016430058)
(6.2042828e-05 5.5046394e-05 0.00016981406)
(0.00011210938 -3.0766606e-05 0.00013811159)
(2.8059513e-05 5.7737246e-05 0.00010182499)
(1.4829542e-05 9.0645191e-05 0.00013374482)
(9.6842536e-05 -3.4197591e-05 0.0001524128)
(8.3985728e-05 -5.4548832e-06 0.00015478532)
(4.2836852e-05 1.8459233e-05 0.00012126049)
(-1.6861042e-05 9.036784e-05 5.3233104e-05)
(1.5482544e-05 4.3091469e-05 0.00012884597)
(3.7638224e-05 7.1386188e-05 0.00014036959)
(-2.569052e-05 0.00010350757 8.723712e-05)
(4.4880155e-08 8.2926533e-05 0.00011340397)
(-3.3830606e-05 0.00010766256 7.6437487e-05)
(-4.2942946e-05 0.00011073216 6.0284469e-05)
(-8.447767e-06 8.1937937e-05 0.00010757014)
(0.00023031582 4.3681404e-05 0.0003161288)
(-1.8725509e-05 9.0047694e-05 5.6967957e-05)
(0.0002344447 -3.7442959e-05 0.0003193367)
(0.00021949195 -3.710709e-05 0.00031389812)
(-5.6092218e-05 8.8323286e-05 1.1783221e-05)
(-3.6186038e-05 8.3415893e-05 4.6632024e-05)
(0.00021311538 -2.1351436e-05 0.00028157535)
(-5.7067548e-05 0.00010691885 7.7958885e-05)
(-6.0091702e-05 9.433583e-05 1.1676229e-05)
(-3.3370234e-05 8.1547778e-05 2.9946649e-06)
(-6.6763064e-05 0.00010960215 4.7735168e-05)
(-3.293765e-05 5.8027641e-05 3.6164017e-05)
(0.00021265235 -1.3177123e-05 0.00027259796)
(-7.8722895e-05 9.2423588e-05 -1.6822831e-06)
(0.00024132988 -4.9240152e-05 0.00033732208)
(0.00013590929 -8.6631712e-05 0.00012473164)
(-4.1423178e-05 7.6710333e-05 -3.275957e-06)
(-4.6413316e-05 9.3898824e-05 -1.3049965e-05)
(0.00015357717 -7.1537966e-05 0.00015840818)
(0.00024631515 8.4312834e-06 0.0003144195)
(-7.0230797e-05 0.00011982187 -1.5577332e-05)
(0.00010890484 -4.5821457e-05 0.00012910417)
(3.1201036e-05 2.1160327e-06 4.5525582e-05)
(-8.3556427e-05 0.00010929544 4.1086956e-05)
(-7.2282518e-05 0.00010134174 -4.7316298e-05)
(-4.8754343e-05 7.6968563e-05 -2.436449e-05)
(-5.7439276e-05 7.5399285e-05 -2.4709994e-05)
(-8.0371296e-05 0.00010386226 -4.4471744e-05)
(0.00020697904 -2.9273787e-05 0.00029260077)
(-8.8096776e-05 0.000118198 -1.9959702e-05)
(-5.9745113e-05 7.7894707e-05 -2.2894325e-05)
(-0.00010563466 0.0001102586 -5.6074175e-05)
(-9.4981474e-05 0.00010474222 -1.8763974e-05)
(0.00023675706 -1.7303144e-05 0.00038782464)
(-1.8428755e-05 1.2979927e-06 2.1643715e-06)
(-7.7372161e-05 9.8756486e-05 -6.7230983e-05)
(7.1564519e-05 -5.0511608e-05 8.6765457e-05)
(0.00019432886 -1.6265212e-05 0.00033072349)
(-9.3535717e-05 9.1553727e-05 -4.6935668e-05)
(9.81929e-05 -7.9359481e-05 0.00010881779)
(-0.00010155132 0.00012355886 -0.00010384784)
(-9.6959716e-05 9.8748945e-05 -6.455018e-05)
(0.00013456488 -8.4601262e-05 0.0001003269)
(-7.6539121e-05 8.3977464e-05 -6.3477529e-05)
(-0.00012161648 0.00011149205 -0.00011266386)
(-0.00014779105 9.646514e-05 -0.00011349979)
(-9.4747382e-05 5.5412106e-05 -0.00010112986)
(0.00029004663 3.4370515e-05 0.00043451335)
(0.00027338099 -1.2391129e-05 0.00048156876)
(0.000219311 -9.4984285e-06 0.00036322813)
(-9.0857164e-05 5.0684972e-05 -9.9172453e-05)
(-8.3560775e-05 5.6005252e-06 -4.9119373e-05)
(9.2023659e-05 -6.9601065e-05 7.0430381e-05)
(5.6671185e-05 -5.6621958e-05 2.7346988e-05)
(-7.0723096e-05 9.6948969e-05 -5.5471948e-05)
(3.1157407e-05 -3.6105385e-05 -3.5532357e-05)
(-9.187214e-05 5.5645485e-05 -9.6849397e-05)
(-8.6714701e-05 2.5188038e-05 -0.00012119284)
(9.0532547e-05 -8.2276169e-05 8.3626097e-05)
(0.0002592849 -2.0029149e-05 0.00041776646)
(-7.0299736e-05 0.00010091675 -6.9481947e-05)
(6.1033839e-05 -7.4133328e-05 4.1150268e-05)
(9.3334532e-05 -7.8476027e-05 7.2037596e-05)
(-0.00011218875 0.00011852433 -0.00010400324)
(-7.7825497e-06 -3.4999307e-05 -7.885722e-05)
(-0.00012545036 9.674953e-05 -0.00012795041)
(-0.0001079223 1.5769031e-05 -0.00012810634)
(0.00021756829 -1.3524506e-05 0.00029347026)
(5.0165688e-05 -6.9669238e-05 3.0331386e-05)
(7.3635214e-06 -5.9381827e-05 -5.0354605e-06)
(0.00017279738 -8.1907296e-05 0.00013103099)
(-2.9029842e-05 -5.7995484e-05 -4.9074678e-05)
(3.5439595e-05 -6.543856e-05 -8.3638874e-06)
(4.3654424e-05 -9.2422855e-05 1.3712685e-05)
(-7.248258e-05 -2.8991908e-05 -0.00011433846)
(-8.8293362e-05 1.4749186e-05 -0.0001458263)
(0.00028238427 -2.5738676e-05 0.00044988994)
(8.3128209e-05 -7.4154228e-05 4.6683595e-05)
(0.00027530581 -4.0481009e-05 0.00030766123)
(-9.0312611e-05 -1.4622134e-05 -0.00013792877)
(-1.3424493e-05 -5.7053755e-05 -6.4553868e-05)
(-3.2202193e-05 -4.5884762e-05 -9.6355617e-05)
(0.00018913301 -4.7451274e-05 0.00017911728)
(0.00022606687 -3.1443329e-05 0.00023066718)
(3.4542074e-05 -7.53931e-05 -1.0910892e-05)
(-9.5410278e-05 6.0228049e-07 -0.00013337704)
(-7.3835303e-05 -3.0793128e-05 -0.00012217494)
(0.00017238596 -8.5116715e-06 0.00025676002)
(0.00022703106 -3.7162183e-05 0.00025920845)
(2.9595368e-05 -6.5040615e-05 -3.2385942e-05)
(-7.71658e-05 -1.2091388e-05 -0.00014448904)
(-4.0129498e-05 -4.3906801e-05 -0.0001088213)
(-3.3986302e-05 -5.7134207e-05 -8.2485101e-05)
(-8.6209532e-05 -3.8721629e-05 -0.00015038845)
(0.00013990916 -9.4207447e-05 0.00010603764)
(0.00017004501 -1.7694299e-05 0.00023761903)
(-6.3411473e-05 -4.8741808e-05 -0.00013824439)
(-4.1363252e-06 -6.6936205e-05 -6.3814731e-05)
(-6.0143764e-05 -5.935073e-05 -0.00012442213)
(0.0001879108 -6.3597509e-05 0.00017277414)
(-7.884902e-05 -1.4598578e-05 -0.00014828856)
(0.00020758008 -6.1523075e-05 0.00019371493)
(-8.9848677e-05 -4.1970479e-05 -0.0001557937)
(-5.018768e-05 -6.0729801e-05 -0.0001086962)
(-8.725723e-05 -2.8968526e-05 -0.00015368411)
(0.00024042034 3.0175833e-05 0.00025964061)
(-6.0365935e-05 -5.4565666e-05 -0.00014007107)
(-6.9178991e-05 -4.2756048e-05 -0.00013477908)
(0.00029567605 1.1311644e-05 0.00030031405)
(-8.4807636e-05 -2.9965182e-05 -0.00015412426)
(8.4394706e-05 -8.6274717e-05 3.6839153e-05)
(3.8992866e-05 -7.4205326e-05 -1.3068073e-05)
(-9.4524769e-05 -1.8506292e-05 -0.00014613926)
(-8.3982547e-05 4.8238241e-06 -0.00012704542)
(0.00017747097 -8.5212227e-06 0.00029450072)
(-9.1313998e-05 5.2942745e-05 -0.00010985564)
(-9.3853114e-06 -5.3325687e-05 -7.1363938e-05)
(4.8064654e-06 -6.75869e-05 -5.8512692e-05)
(-8.5045093e-05 -6.7488243e-06 -0.0001341931)
(0.00025608524 -1.6816669e-05 0.00044445362)
(-6.8949307e-05 8.6243127e-05 -7.833189e-05)
(-6.3332169e-05 9.4083804e-05 -6.5731803e-05)
(0.00014438782 4.7890581e-06 0.00027991528)
(0.00028582307 3.7882757e-06 0.0002783666)
(-7.5444377e-05 6.3189325e-06 -0.00012129936)
(0.00025694434 -1.7370414e-06 0.00024669827)
(-7.3876686e-05 2.0473121e-05 -9.6960372e-05)
(-0.00011207239 3.1817384e-05 -0.00013461313)
(-0.00012755326 9.5504966e-05 -0.00013314009)
(-7.4404581e-05 3.9137152e-05 -9.383658e-05)
(5.6445523e-05 -7.3921818e-05 1.3184975e-05)
(-6.6717084e-05 2.8871854e-05 -7.2198045e-05)
(-1.1425904e-06 -5.3503138e-05 -5.9838409e-05)
(2.9907983e-05 -5.9029698e-05 -4.724109e-05)
(0.00025377568 2.1170898e-05 0.00028284589)
(-9.0490973e-05 1.289787e-05 -0.0001365012)
(0.00018659224 1.5867416e-05 0.00021028156)
(0.00013420686 -1.8655991e-06 0.00025124359)
(0.00024693476 -4.9555421e-06 0.0002283643)
(5.1285555e-05 -6.5613772e-05 -1.3429605e-05)
(0.00010923618 -7.5955785e-05 5.5739108e-05)
(-4.0809797e-05 6.9725863e-05 -3.1643663e-05)
(1.8450165e-06 -5.3601555e-05 -3.0571732e-05)
(-4.2519217e-05 -5.6804266e-05 -0.00011973979)
(3.3402154e-05 -6.4033593e-05 -1.1877832e-05)
(-0.00010380252 2.0523384e-05 -0.00014177642)
(5.2841093e-05 -7.720925e-05 -4.1770983e-06)
(0.00029812838 1.1412337e-06 0.00026082433)
(5.013309e-05 -5.937362e-05 9.7896081e-06)
(-3.8363124e-05 -5.8276635e-05 -0.00011053331)
(-9.0219347e-05 1.0806125e-05 -0.00013155701)
(0.00019554317 -3.2894403e-05 0.00018397194)
(-5.3609418e-05 8.4692432e-05 -6.3610571e-05)
(0.00022281578 -3.4860393e-05 0.00021408089)
(0.00022708624 -3.6384527e-05 0.00024842232)
(2.0621537e-06 -7.7165119e-05 -3.9476575e-05)
(3.5273913e-05 -6.1088037e-05 1.2984954e-06)
(-6.9976091e-05 2.1221359e-05 -9.7594275e-05)
(-7.7235607e-05 3.8329609e-05 -9.842311e-05)
(7.5482965e-05 -7.1716384e-05 1.5532183e-05)
(7.2183989e-05 -6.3890346e-05 2.3055876e-05)
(7.5959073e-05 -7.367036e-05 2.3492314e-05)
(3.2964063e-05 -5.2279298e-05 -9.8344177e-06)
(-0.00011193776 2.6748657e-05 -0.00014518463)
(0.00014595487 8.3530015e-06 0.00025838649)
(-5.0558148e-05 8.8989667e-05 -4.5235608e-05)
(-0.00010864333 5.7938659e-05 -0.00013339658)
(2.8765319e-05 -6.4451089e-05 -1.7920464e-05)
(9.81905e-05 -8.1264718e-05 5.3224081e-05)
(-7.4478313e-05 8.2142375e-05 -7.550244e-05)
(0.00021105949 -2.9117692e-05 0.0002668378)
(0.00020023277 -7.2285562e-05 0.00016734558)
(-9.7966799e-05 9.5322853e-05 -0.00012450294)
(0.00014185304 -0.00010721217 9.9012986e-05)
(0.00030868447 -3.9757663e-05 0.00033954414)
(0.0002063495 -5.2153162e-05 0.00018517696)
(0.00020002424 1.2738052e-05 0.00023017896)
(0.00017521851 -1.1693437e-05 0.00023599377)
(-9.5894703e-05 5.8883505e-05 -0.0001192721)
(9.5017665e-05 -7.2936488e-05 5.0840251e-05)
(9.1956778e-05 -5.819357e-05 3.8423536e-05)
(0.00014867144 -8.8978077e-05 7.2673127e-05)
(0.00020172693 -6.3897873e-05 0.00018124319)
(-4.9432774e-05 8.038749e-05 -6.3541935e-05)
(-9.7635859e-05 4.2662345e-05 -0.00012882341)
(-5.2486361e-05 8.662096e-05 -6.1400544e-05)
(0.00024390143 1.2760138e-05 0.00027748744)
(-4.2809311e-05 7.8301113e-05 -5.7942324e-05)
(-9.8558619e-05 6.1611026e-05 -0.00012589817)
(-5.1909676e-05 8.5180676e-05 -6.9074616e-05)
(-8.8555498e-05 8.4843876e-05 -0.000110586)
(0.0002514643 -1.1353009e-05 0.00041942252)
(0.00021792369 7.1898816e-06 0.0002520599)
(-6.3831789e-05 8.2441366e-05 -9.0920723e-05)
(0.00021869264 -1.3926418e-05 0.0003560149)
(0.00022282348 -1.2640754e-05 0.00035693051)
(0.00024422112 -1.5477962e-05 0.00035137995)
(0.00013292722 -8.1701003e-05 9.0716045e-05)
(0.00013753878 -8.9880271e-05 0.00010187467)
(0.00018638064 -8.5744432e-06 0.00028777463)
(-6.5362067e-05 6.5966933e-05 -7.9145602e-05)
(0.00023188012 -1.6231992e-05 0.00021595211)
(0.00021013693 5.4186361e-06 0.00024917086)
(0.00022624644 -2.9324967e-05 0.00020967771)
(0.0002184501 -4.8726434e-05 0.00019483776)
(0.00022583472 -2.4275112e-05 0.00024378499)
(0.00022485589 -2.3649255e-05 0.00022694556)
(0.00023064492 -3.4021889e-05 0.00019865718)
(0.00020140739 5.8592624e-07 0.00024541035)
(0.00015824626 -0.00011151672 0.00012021255)
(0.00023124613 -1.1618735e-05 0.00020936688)
(0.00022935638 -2.5922654e-05 0.00025560545)
(0.00023472175 -4.0014392e-05 0.00019777159)
(0.00014180132 -1.0588191e-06 0.00024986599)
(0.00021853524 -2.2145692e-05 0.00025465805)
(0.00019612263 -1.2051452e-05 0.00019473851)
(-5.0658064e-05 6.4240294e-05 -6.3338623e-05)
(0.00022654675 -2.3027559e-05 0.00021883739)
(0.00020438775 -9.0870285e-06 0.00021664739)
(0.00021818493 -1.8372231e-05 0.00019125561)
(0.00025541275 -3.2609902e-05 0.0002182675)
(0.00019601888 -1.0460706e-05 0.00019929288)
(0.00024182091 -2.0975648e-06 0.00022736512)
(0.00022237058 -3.4980585e-06 0.00028185443)
(0.0002252578 -8.0915912e-06 0.00020552015)
(0.00024857183 -6.7644975e-06 0.00022358054)
(0.00020231417 -5.6251593e-06 0.00022233404)
(0.00022143084 -8.1748102e-06 0.00022381693)
(0.00028526064 3.06798e-05 0.00030431541)
(0.00021888385 -2.043316e-05 0.0002669993)
(0.00020849437 -4.042906e-05 0.00017514059)
(0.00017948602 -8.5278752e-05 0.00015477936)
(0.00024180378 -1.2025171e-05 0.00023698513)
(0.00028928187 1.6811648e-05 0.00029516444)
(0.00022772566 -8.1926653e-06 0.00026511026)
(0.00014284994 -6.456857e-05 0.00010316717)
(0.00019311153 -2.2341862e-06 0.00025569177)
(0.00016485153 -9.0914787e-05 0.00012153983)
(0.00017399785 -7.6856022e-05 0.00014190013)
(0.000278077 1.0449208e-05 0.00027302406)
(0.00019518455 -5.5275124e-05 0.00016909989)
(0.00020090958 -2.5832832e-06 0.00027208612)
(0.00025077239 -5.133764e-05 0.00032722223)
(0.00025647501 -5.6401587e-05 0.00021483415)
(0.00020737286 5.2780484e-06 0.00019843521)
(0.00020502557 -4.556504e-06 0.00019427353)
(0.00019291952 -6.8773821e-05 0.00015843642)
(0.00023897379 -5.6313893e-05 0.00020939844)
(0.00017289137 -6.4424533e-05 0.00013861426)
(0.00023102988 -1.6718364e-05 0.00035098378)
(0.00023032287 -1.9728467e-05 0.00035376408)
(0.00024935178 -2.8250579e-05 0.00021401774)
(0.00018391267 -5.1490644e-05 0.00014972655)
(0.00019092953 -7.3223406e-05 0.00014356551)
(0.00026624098 -3.2991066e-06 0.00024019248)
(0.00015097998 -7.1976599e-05 0.00011981534)
(0.00024876084 -4.3521655e-05 0.00020649885)
(0.0002037998 -6.0129354e-05 0.00016352759)
(0.0002569325 -4.8878522e-05 0.00030601245)
(0.0001778823 -9.3294304e-05 0.00013384808)
(0.00017265412 -6.1184401e-05 0.00013475688)
(0.00017004904 -5.4958252e-05 0.00012911122)
(0.00022537095 -4.9959822e-05 0.00018760619)
(0.00021683979 -2.4364716e-05 0.00017645175)
(0.00022623557 -4.2883189e-06 0.00020352156)
(0.00016511591 -1.5578942e-05 0.0002269831)
(0.00017561647 -5.1032042e-05 0.00013960852)
(0.00017740199 -5.9515287e-06 0.00022622573)
(0.00020729259 -5.8134579e-05 0.00017349526)
(0.00022052682 -4.7541752e-05 0.00017624381)
(0.00021636209 -4.2468969e-05 0.00017126604)
(0.00017384175 -4.6672512e-05 0.00013550193)
(0.00023546042 -3.5153656e-05 0.00019104099)
(0.00022445233 2.5182082e-08 0.00022639221)
(0.0002072796 -4.4633379e-05 0.00015440074)
(0.00021893229 -6.9418082e-06 0.00024423673)
(0.00022130764 -1.1627052e-05 0.00027180603)
(0.00022099099 -3.9447592e-05 0.00017490563)
(0.00025005483 -2.0303521e-05 0.0003566396)
(0.00024145449 -3.7688072e-05 0.0001997323)
(0.00021697214 2.5437715e-06 0.00028853654)
(0.00023290748 -2.467227e-05 0.00019029857)
(0.00031941752 -3.5306051e-05 0.00033950234)
(0.00021554489 -3.0144333e-05 0.00016256113)
(0.00021635832 -5.271717e-05 0.0001652634)
(0.00018809308 -2.4426638e-05 0.00026074293)
(0.00017399184 -4.579886e-05 0.0001314876)
(0.00028576606 -3.8656572e-05 0.00032019665)
(0.00022825534 -1.9513985e-05 0.00018614136)
(0.00025004243 -2.0854003e-05 0.00020641798)
(0.00024379224 -1.7594614e-05 0.0002021357)
(0.00021313329 -4.6523928e-05 0.00015365706)
(0.00018825923 -6.0453565e-06 0.00027612304)
(0.00016703964 -5.1675954e-05 0.00013377916)
(0.00017072378 -8.0593017e-06 0.00023211219)
(0.00020656648 -9.6958354e-06 0.0002708974)
(0.00022309991 -9.6804515e-06 0.000259361)
(0.00022505681 -4.054286e-06 0.00025051012)
(0.0002781645 -3.071488e-05 0.00030521138)
(0.00015200868 7.682781e-06 0.00024830723)
(0.00022044676 -2.0634362e-05 0.00023678784)
(0.0001868376 -4.480077e-06 0.00030671519)
(0.00014876631 -7.5686019e-06 0.00023793883)
(0.00017923836 8.9877716e-06 0.00026957335)
(0.00015111972 1.8048552e-06 0.0002542207)
(0.00019341252 -1.2947171e-05 0.00028779892)
(0.00019451448 -1.4049245e-05 0.00029543211)
(0.00020865343 -9.0880829e-06 0.00027615717)
(0.00013880853 -5.3287953e-06 0.00022963386)
(0.00019248922 -4.7642204e-06 0.00027731056)
(0.00025800318 -1.0829818e-05 0.00042116877)
(0.00025618769 -9.8660066e-06 0.00041963719)
(0.00026115785 -1.6272369e-05 0.00042975107)
(0.00021128635 -2.2824281e-05 0.00017209118)
(0.00028208255 2.2427159e-05 0.00030352811)
(0.00027910691 8.7215661e-06 0.00028531841)
(2.4216191e-05 2.0712128e-06 6.8089928e-05)
(0.00018473011 -5.0401348e-06 0.00025026778)
(0.00027299627 1.3628353e-05 0.00028301931)
(0.0002163004 -3.7140334e-05 0.00015854509)
(0.00030998875 -4.1326106e-05 0.00034227146)
(0.00026226425 1.1356601e-05 0.00027632224)
(0.00027350972 -1.8412777e-06 0.00028804558)
(0.00027623955 2.3772849e-05 0.00030182561)
(0.0002212752 -3.9672537e-05 0.00016281341)
(0.00025425178 1.3833022e-05 0.00026708844)
(0.00027538637 2.7106269e-05 0.00029669719)
(0.0002622205 5.1561813e-06 0.00024878282)
(0.00018430889 1.5068892e-06 0.00018390734)
(0.0001741918 3.5794995e-06 0.00026086739)
(0.00024007532 -1.0898513e-05 0.00041428633)
(0.00021899825 -1.0342824e-05 0.00021076764)
(0.00021935832 -8.8596093e-06 0.00021408924)
(0.00020598762 -1.0130684e-05 0.00018367224)
(0.00022697604 -9.4001035e-06 0.00021869764)
(0.00024920339 -1.5874565e-05 0.00021200291)
(0.00023075273 -2.0946162e-05 0.00021458511)
(0.00022574815 -1.4355379e-05 0.0002136505)
(0.00021724161 -2.9034241e-05 0.00018556887)
(0.00025984581 -2.1524217e-05 0.00022487792)
(0.00021562869 -1.9879476e-05 0.00015906922)
(0.00019205433 -1.2032935e-05 0.00033387703)
(0.00018744066 -1.551384e-05 0.00018252792)
(0.00020022489 -2.8452796e-05 0.00018146907)
(0.00019890017 -2.6659032e-05 0.00017123867)
(0.00020372061 -2.6629594e-05 0.00019996459)
(0.00018059563 -2.1808085e-05 0.00016337383)
(0.00022217672 -3.0805972e-05 0.00018709898)
(0.00027389652 -2.3113079e-05 0.00043027932)
(0.00014204684 -2.6981703e-05 0.00011372874)
(5.3958414e-05 -1.0521541e-05 0.00013497187)
(0.00027262511 1.1738823e-05 0.00028355933)
(0.00020098422 -1.6393822e-05 0.00017248628)
(0.00026138923 -2.4815215e-05 0.00022896348)
(0.00025868273 2.3136534e-05 0.00027365673)
(0.00026093466 -3.0007069e-06 0.00026963988)
(0.0002431171 -8.9310207e-06 0.00024211223)
(0.00022293486 -3.0533338e-05 0.0001904973)
(-3.7839418e-05 8.077794e-05 -6.3029419e-05)
(-3.4069504e-05 8.8661332e-05 -6.9218137e-05)
(0.00022314802 -9.8725046e-06 0.00019387903)
(0.00019808378 9.6909591e-06 0.00030504024)
(0.00021398894 -1.1483014e-05 0.00021027082)
(0.00020505584 -4.289672e-05 0.00017462931)
(0.00022433641 -2.0888659e-05 0.00018865022)
(0.00028041955 -2.2033414e-05 0.00023807772)
(0.00019615607 -1.8529358e-05 0.00019051829)
(0.00022102447 -2.7448451e-05 0.00017946081)
(0.00019102074 -2.9961551e-05 0.00015233083)
(0.00022403954 -2.0322426e-05 0.00018092791)
(0.00025220085 -3.023122e-06 0.00026044092)
(0.00026441916 9.4405146e-06 0.00027704536)
(-3.6871785e-05 8.0025562e-05 -5.7266404e-05)
(0.0001853928 -3.9728382e-05 0.00014724561)
(0.0001941873 1.3838328e-05 0.00020935615)
(0.00022057526 -2.9056765e-05 0.00017053781)
(0.00018639017 -3.8905543e-05 0.00014689085)
(-4.4828353e-05 6.6732266e-05 -5.6979553e-05)
(0.00018639813 -4.7735851e-05 0.00015179936)
(0.00020168674 -1.1236248e-05 0.00020856226)
(0.0002157632 1.9565404e-06 0.00026503149)
(0.00018933302 -5.9703658e-06 0.00019286845)
(0.00020148175 4.973251e-06 0.00027029444)
(0.00019001089 -2.0190438e-05 0.00018836771)
(0.00020105953 3.753017e-06 0.00021324903)
(0.00023487104 -6.0136022e-06 0.00025103744)
(0.00021636461 -1.287302e-05 0.00022990993)
(0.00023578533 5.7834201e-06 0.00025696479)
(0.0001960731 -1.6209577e-05 0.00020527002)
(0.00022607381 -8.7684004e-07 0.00025583929)
(0.00022541972 -3.2507854e-06 0.00024248323)
(0.00024847383 -3.0627592e-06 0.00028069379)
(0.00022845728 -1.6587936e-05 0.00018826299)
(0.00020357867 -5.4961458e-06 0.00022282676)
(0.00020921177 -1.0861288e-05 0.00022548503)
(0.00024022774 -3.0691942e-06 0.00027492031)
(0.00024045253 -1.351441e-05 0.00026665499)
(0.0002305633 3.8316647e-06 0.00026373444)
(0.00023159358 -8.9741596e-06 0.00026169263)
(0.0001941613 -1.456764e-05 0.00020734183)
(0.00020846615 2.0032819e-05 0.00029750888)
(0.00018731447 -1.0406594e-05 0.00020246465)
(0.00013321145 1.2139796e-07 0.00022933605)
(0.00024110483 -1.7220249e-05 0.00035019808)
(0.00014176683 3.0956163e-06 0.00023529107)
(0.00019086504 -1.2723567e-06 0.0002227007)
(0.00014932169 -6.0016582e-06 0.00016061139)
(0.00027532293 -3.035989e-05 0.00029968881)
(0.00019287341 -3.2866079e-05 0.00015805645)
(0.00017603012 -2.8198774e-05 0.00014921034)
(0.00018093434 -2.5180721e-06 0.00020527679)
(0.00021737074 -1.1583709e-05 0.0002607666)
(0.00016788494 -9.203277e-06 0.0001863278)
(0.00020636672 -6.7901776e-06 0.00024143622)
(0.00011642336 -3.6209001e-06 0.0002426145)
(0.00021108116 -8.238727e-06 0.0002568724)
(9.8353742e-05 -3.1289158e-06 0.000186483)
(0.00028474 -2.7749707e-05 0.00024459798)
(0.0001800552 -2.3375806e-05 0.00018439317)
(0.00024469906 -3.1551995e-05 0.0002725482)
(0.00020250902 -1.9959854e-05 0.00023694834)
(0.00018425613 -1.2619706e-05 0.00020192432)
(0.00016307822 -2.2530593e-06 0.00019941011)
(0.00022650174 -2.8122811e-05 0.00018949757)
(0.00010139236 -8.3710277e-06 0.00018617253)
(0.00019367689 -1.5773123e-05 0.00023259045)
(0.00017562911 -1.2834305e-05 0.00020603591)
(0.00015696162 -1.3277049e-05 0.00017908875)
(0.00017360186 -2.143428e-05 0.00018832786)
(0.00016643455 -8.1943535e-06 0.00020213062)
(0.00016578262 -2.0356106e-05 0.00016712063)
(0.00015079611 -1.4549604e-05 0.00018230718)
(0.00014508888 -1.3231151e-05 0.0001521902)
(0.00023282428 -1.6750887e-05 0.00033688157)
(0.00014137754 -1.6934843e-05 0.00015739479)
(0.00017035275 3.857137e-06 0.00024466994)
(0.0001421024 -1.5593193e-05 0.00015010833)
(0.00013016656 -1.6658565e-05 0.00013851338)
(0.00018759602 -1.8271517e-05 0.00019514811)
(0.00017139241 -5.2549633e-06 0.00021765239)
(0.00018964421 -1.4873041e-05 0.00024585126)
(0.00013171397 -2.7954355e-05 0.00014004832)
(0.00024682533 -1.5869172e-05 0.00037708138)
(0.00024282642 -1.8445751e-05 0.00036727087)
(0.00021111153 3.6021011e-06 0.00027176495)
(0.00014147144 -2.2439258e-05 0.00013854351)
(0.00011386431 -2.9545594e-05 0.00012171449)
(0.00012134884 -2.2817092e-05 0.00012695367)
(0.00018793221 -1.0342829e-05 0.00023821631)
(0.00017990866 -3.5255495e-05 0.00014598132)
(0.00017778371 -2.8599173e-05 0.00018042429)
(0.00026696812 -5.0077818e-06 0.00046872016)
(0.00018276769 -1.997588e-06 0.00023493257)
(0.00016102725 -2.7393756e-05 0.00013605408)
(0.00020697772 -8.4234893e-06 0.00026594679)
(0.00013006447 -1.7279016e-05 0.00015929939)
(0.00011842268 -1.5976351e-05 0.00013813357)
(0.00014647684 -2.2664821e-05 0.00018965934)
(0.00019170438 -1.2232863e-05 0.00025738525)
(0.00010148085 -2.4296269e-05 0.00010670168)
(0.00015596274 -1.4330741e-05 0.00021993372)
(0.00018051214 -7.667566e-06 0.00024513428)
(-2.8711265e-05 8.1169288e-05 -6.2825786e-05)
(0.00011164685 -2.3557294e-05 0.00014768582)
(-2.8982279e-05 8.3196355e-05 -6.0896235e-05)
(0.00014441423 -9.0818904e-06 0.00020369347)
(0.00013499805 -1.6419109e-05 0.00018511025)
(9.6869142e-05 -3.2931514e-05 0.00010715393)
(0.00012165987 -3.1096362e-05 0.0001229246)
(0.00022211065 -6.6240297e-06 0.00036319315)
(0.00011426813 -2.5898188e-05 0.00011193039)
(-3.1334938e-05 7.7738291e-05 -7.0432889e-05)
(0.00021514758 -1.6157583e-05 0.00034440666)
(0.00025640419 -1.7035966e-05 0.00041876411)
(0.00023163689 -9.8084159e-06 0.00037556006)
(-3.6991751e-05 7.779729e-05 -5.0399426e-05)
(0.00023656643 4.454685e-05 0.00030192613)
(0.00026761019 -4.8871931e-05 0.00033716678)
(0.00023783878 -4.9808945e-05 0.00030906493)
(0.00026692999 -4.88029e-05 0.00033599321)
(0.00026663246 -3.4100545e-05 0.00034805589)
(0.00025890486 -4.3923684e-05 0.00031368958)
(0.00026556737 -3.6684725e-05 0.00034963835)
(0.00025514485 -3.8273177e-05 0.00031112342)
(0.00025774357 -3.7477941e-05 0.00030925148)
(0.00023284547 -4.2229384e-05 0.00032858506)
(0.00024065997 -3.2682946e-05 0.0003051812)
(0.00024161952 -2.6728962e-05 0.00030280036)
(0.00024019413 -2.852471e-05 0.00029345532)
(0.00022723133 -3.1469724e-05 0.00026903646)
(0.00023480064 -2.5779064e-05 0.0002954017)
(0.00024080422 -2.7774369e-05 0.00029362222)
(0.00026532682 -5.2080424e-05 0.00031154553)
(0.00025777958 -1.0844351e-05 0.0003216591)
(7.0661027e-05 -1.2373417e-05 0.0001901339)
(0.00024442739 -2.1636503e-05 0.00029401957)
(0.00023430813 -1.6827015e-05 0.00029150617)
(0.00026292079 -3.1246967e-05 0.00030315451)
(0.00025829107 -7.7238441e-06 0.0003239249)
(8.3387358e-05 -1.0882811e-05 0.00019541756)
(0.00020750833 9.6629781e-06 0.00029511393)
(-2.6808399e-05 7.8490812e-05 -6.1502405e-05)
(-1.4841498e-05 6.4453494e-05 -6.4370741e-05)
(-2.8666833e-05 8.0592763e-05 -5.8756733e-05)
(-1.8271701e-05 8.2864442e-05 -6.5956082e-05)
(-1.4161782e-05 8.2493351e-05 -5.677726e-05)
(-1.818663e-05 7.8059485e-05 -6.2152692e-05)
(-1.2535932e-05 5.9809337e-05 -6.8383743e-05)
(0.00025063044 -1.7106098e-05 0.00039385337)
(-9.9411061e-06 5.7911381e-05 -6.581112e-05)
(-1.4352325e-05 8.0542734e-05 -5.417062e-05)
(-6.2960278e-06 7.516528e-05 -6.374759e-05)
(0.00026214512 -1.3021001e-05 0.00041528872)
(0.00023069154 -1.2143473e-05 0.00037639918)
(-2.3521805e-05 5.7490493e-05 -8.3160776e-05)
(-4.883654e-06 6.1953147e-05 -7.4760477e-05)
(4.5693337e-06 8.1620449e-05 -5.5640681e-05)
(-5.690658e-06 7.1089556e-05 -5.7755835e-05)
(-3.3723901e-06 4.8047797e-05 -5.6203216e-05)
(-3.4609054e-05 7.5661552e-05 -7.0106614e-05)
(0.00022811715 -1.0700856e-05 0.00037482457)
(-2.0738064e-05 8.295823e-05 -5.1345796e-05)
(-6.9334521e-06 5.9969306e-05 -6.5758152e-05)