/*--------------------------------*- C++ -*----------------------------------*\
  =========                 |
  \\      /  F ield         | OpenFOAM: The Open Source CFD Toolbox
   \\    /   O peration     | Website:  https://openfoam.org
    \\  /    A nd           | Version:  11
     \\/     M anipulation  |
\*---------------------------------------------------------------------------*/
FoamFile
{
    format      ascii;
    class       volVectorField;
    location    "10000";
    object      wallShearStress;
}
// * * * * * * * * * * * * * * * * * * * * * * * * * * * * * * * * * * * * * //

dimensions      [0 2 -2 0 0 0 0];

internalField   uniform (0 0 0);

boundaryField
{
    wall-fluid_domain
    {
        type            calculated;
        value           nonuniform List<vector> 
33501
(
(0.00017454666 3.7862104e-05 0.00025433273)
(8.8632465e-05 2.1374678e-06 0.00013342979)
(0.00012613478 3.6174238e-07 0.00020685346)
(6.1808307e-05 -7.9371907e-06 7.0646982e-05)
(3.4881679e-05 1.997887e-06 6.5099041e-05)
(9.3941311e-05 -4.2640138e-07 0.00014119162)
(9.3660262e-05 -3.1919742e-06 0.00012097386)
(8.1350089e-05 7.0774796e-06 0.0001318785)
(0.00011008574 -2.3167545e-05 0.00016023323)
(1.7249307e-06 -8.3318046e-06 1.854008e-06)
(9.0168751e-05 -1.3854571e-05 0.00012135636)
(0.00011865913 9.5954922e-06 0.00017640498)
(0.00014098162 -2.7255263e-05 0.00022397063)
(0.00010861395 8.4709497e-06 0.00017492766)
(4.5437097e-05 -3.5302179e-06 4.8058511e-05)
(0.00012407839 3.1670618e-05 0.00016646079)
(0.00018297033 3.5317312e-05 0.00023490314)
(0.00016898383 3.3228525e-05 0.0002175639)
(9.5496827e-05 8.3073872e-07 0.00012492924)
(3.1350764e-05 -1.1737453e-05 3.2632287e-05)
(0.00015382248 3.505262e-05 0.00019253132)
(8.3563529e-05 -3.4744746e-07 0.0001248014)
(0.00012010711 -5.7267283e-06 0.00020400187)
(0.00010525291 -3.0464391e-06 0.00015770804)
(0.00017819672 3.7809427e-05 0.00023269254)
(0.00017663968 3.7938674e-05 0.00024625201)
(8.7259934e-05 7.2802716e-07 0.00013013966)
(0.0001259254 -1.8085319e-06 0.0001859072)
(-1.0431802e-06 -1.0805907e-05 6.3680538e-06)
(0.00012598157 -6.1675004e-06 0.00019310374)
(8.8271749e-05 -3.6969838e-06 0.00013512541)
(0.00014966356 3.2706665e-05 0.00022057213)
(9.9511597e-05 -3.1775365e-06 0.00016675539)
(0.0001579221 3.1619936e-05 0.00021459297)
(0.00015270283 3.4614026e-05 0.00023107087)
(0.00017167715 3.0920593e-05 0.00025965258)
(0.00015477661 3.529562e-05 0.00022193686)
(-4.4333071e-06 -8.2335792e-06 1.1152754e-05)
(-8.8458441e-06 -4.5569653e-06 4.8458016e-06)
(0.00016440583 1.9204204e-05 0.00027564007)
(-9.6416286e-06 2.6239562e-06 1.0538864e-06)
(0.00010024372 -3.7752651e-06 0.00015358999)
(0.00016151632 1.3899348e-05 0.00027735574)
(0.00015543109 -2.5932155e-05 0.00026489566)
(0.00016116835 -2.2151214e-05 0.00027453581)
(0.0001202372 4.745614e-06 0.00018095539)
(0.00011923903 -2.6069614e-06 0.00018278203)
(8.6268555e-05 3.8521089e-06 0.00011212899)
(8.6927197e-05 3.8152737e-06 0.00013286762)
(0.00016930775 3.1515158e-05 0.00026804673)
(8.1577901e-05 -1.4506575e-06 0.00012559722)
(0.00017487252 2.4859745e-05 0.00027148211)
(0.00011764209 4.2402345e-07 0.00020123203)
(0.00018086375 7.7419056e-06 0.00032703379)
(0.00010704959 -2.8813223e-06 0.000163094)
(8.8499076e-05 -3.46287e-06 0.00013708417)
(9.3901516e-05 -3.1130737e-06 0.00014526105)
(0.00016634524 4.2006821e-05 0.00020787466)
(0.00013277965 3.0028663e-05 0.00017335475)
(-2.95921e-06 -1.102173e-05 2.5758676e-06)
(0.00012308599 3.9236299e-06 0.00020149922)
(5.7349687e-06 -9.8453872e-06 8.0726633e-06)
(0.00012249126 -5.2485089e-06 0.00018720906)
(0.0001164263 -1.0573059e-05 0.0001751975)
(4.3252731e-05 -6.193576e-06 4.1321362e-05)
(8.4480301e-05 -3.4295434e-06 0.00010825764)
(0.00016433963 -2.9179053e-05 0.00027308347)
(0.00015256626 3.2550795e-05 0.00020769242)
(0.00012354667 -9.679014e-06 0.00019243908)
(0.00011817095 -6.1774108e-06 0.00020109816)
(0.00010761301 -2.3967102e-06 0.00016607426)
(-3.807621e-06 -7.839201e-06 9.2171644e-06)
(0.00012561456 -3.6046504e-05 0.00019524867)
(0.00017958879 3.484528e-05 0.0002624391)
(0.00016558545 -1.9525882e-05 0.00027905766)
(0.00011070887 -2.8338994e-06 0.00016654874)
(0.00013347815 2.4438988e-05 0.00018598851)
(0.00017667554 7.7302617e-07 0.00031320031)
(0.00016758295 -1.7070797e-05 0.00027662437)
(0.00013312794 2.9982517e-05 0.00016604646)
(0.0001910012 3.8432267e-05 0.00023875619)
(6.2839886e-05 -8.939682e-06 7.116154e-05)
(5.9746172e-05 -8.4611074e-06 6.4433937e-05)
(7.1075135e-05 -5.4381856e-06 8.2050813e-05)
(0.00011580236 -9.098049e-07 0.00017481167)
(0.00015927833 2.6961036e-05 0.00024532536)
(0.00011396999 -5.1197914e-06 0.00017427288)
(2.770627e-05 6.6036994e-06 7.4186068e-05)
(1.610613e-06 -8.11395e-06 2.3202114e-05)
(7.5437325e-06 -8.394784e-06 5.0670125e-06)
(0.00010440379 -3.3195672e-06 0.0001609201)
(2.4954796e-06 -6.9110324e-06 -1.1826929e-07)
(0.00010271965 -5.7784057e-06 0.00016200869)
(6.7968486e-05 7.3893136e-06 0.00010813973)
(0.00018015747 3.2371241e-05 0.00023595069)
(0.00020673213 3.2684966e-05 0.0002837889)
(0.00018532843 3.261624e-05 0.00027348297)
(0.00017598147 2.5991459e-05 0.00029147895)
(0.00013081996 2.7656475e-05 0.00018168701)
(0.00011493125 -9.1223871e-06 0.00017873307)
(0.00012095089 -5.38185e-06 0.00020405715)
(2.9931193e-05 -1.8985267e-05 3.4055022e-05)
(5.8208474e-05 -7.5999217e-06 6.5884335e-05)
(0.00019167299 4.0400407e-05 0.00023643647)
(6.5149259e-05 2.1758318e-06 9.7079443e-05)
(0.0001337565 -5.5450913e-06 0.00021460527)
(0.00012645946 -4.7802625e-06 0.00020505428)
(0.0001302346 -4.2588817e-06 0.00020691439)
(0.00017692918 4.0330221e-05 0.00022970698)
(0.00019990666 3.4808986e-05 0.00028067126)
(0.00018205808 3.5438834e-05 0.00022211941)
(0.00018339356 3.7874027e-05 0.00025490134)
(0.00018859783 3.476555e-05 0.00025189294)
(0.00011307204 -8.5396171e-06 0.00018209526)
(0.00018349155 3.1859564e-05 0.00027078558)
(0.00016159987 2.6654042e-05 0.00023185737)
(0.0001240031 -5.6799188e-06 0.00020098058)
(-1.4498877e-05 -9.2822657e-07 -2.1903465e-05)
(0.00012387512 -8.4736712e-07 0.00020761141)
(2.4643006e-05 -1.493221e-05 2.6563672e-05)
(6.2219881e-05 2.9321166e-06 0.00010983522)
(0.00014687404 2.9940693e-05 0.000196529)
(0.00014714914 2.9588904e-05 0.00018983568)
(0.00015414495 -5.376222e-06 0.00025950648)
(0.0001755446 3.2991378e-05 0.00024007367)
(0.00012562954 -3.2712998e-06 0.00020589516)
(0.00015915811 2.7253779e-05 0.00022967676)
(2.4920925e-05 -1.5959734e-05 2.5309877e-05)
(0.00015597523 2.7110815e-05 0.00020442118)
(3.4672169e-05 -5.4720302e-06 3.3631427e-05)
(0.00018491105 3.0826772e-05 0.00024361915)
(0.00016921837 3.4044031e-05 0.00024376542)
(4.1490878e-05 2.0544751e-06 6.9877896e-05)
(5.9794772e-05 6.9072859e-07 8.6263524e-05)
(0.00017451446 3.0775517e-05 0.00027142083)
(6.1371581e-05 -7.3124784e-06 6.2737838e-05)
(-1.8508171e-05 8.7481165e-06 -1.0286049e-05)
(0.00018119882 3.3559815e-05 0.00023827808)
(0.00015437596 3.1743448e-05 0.0001986877)
(-1.7167885e-06 -8.4170552e-06 8.3101911e-06)
(0.00015504317 2.8969767e-05 0.00023742042)
(0.00014566041 2.6374157e-05 0.00020651981)
(0.00017367293 3.6207454e-05 0.00023871302)
(-4.6970914e-06 -8.1818276e-06 5.2123651e-06)
(9.991964e-05 -2.1954586e-06 0.00017308321)
(0.00015484077 2.5616743e-05 0.00023701727)
(0.00014029738 2.8632206e-05 0.00020849384)
(9.9688572e-05 8.1664281e-06 0.00015605238)
(0.00015484531 2.5588838e-05 0.00022974104)
(0.00011429031 7.2896233e-06 0.0001779385)
(0.00014289408 -2.3119475e-05 0.00023714633)
(2.2014033e-07 -9.1530175e-06 1.3367195e-06)
(0.00014087661 -2.4503058e-05 0.00023806934)
(0.00016252149 2.5022622e-05 0.00025942107)
(0.00012395074 -5.5663914e-06 0.00020241387)
(-2.938366e-06 -9.550691e-06 5.6944746e-06)
(0.00011258772 1.7289264e-06 0.00019744339)
(0.00015639283 3.2102018e-05 0.00019434415)
(9.8407412e-06 -1.2154007e-05 5.4666976e-06)
(0.00011694524 9.9760679e-06 0.00018947111)
(1.0186855e-05 -8.3799711e-06 -1.4089145e-06)
(8.230438e-07 -6.8914191e-06 1.8904649e-06)
(0.00016117598 1.7976237e-05 0.00028163752)
(0.00016108914 2.8515923e-05 0.000193658)
(0.00012629447 9.5857532e-08 0.00020908038)
(0.00016337955 -2.0844915e-05 0.00027066603)
(1.2031035e-05 -1.5005078e-05 1.1418647e-05)
(0.00012755579 -5.9762719e-06 0.0002028332)
(-2.1318701e-06 -5.2489447e-06 -6.9916645e-07)
(0.00012662211 3.3227307e-06 0.00020394339)
(-7.8520546e-06 1.42236e-05 -2.0546249e-05)
(-1.364706e-05 1.5696992e-05 -1.8403452e-05)
(0.0001864626 1.5394243e-05 0.00032957692)
(-6.923359e-07 -9.866629e-06 4.3530982e-06)
(0.00015394013 2.6520084e-05 0.0002354441)
(0.00017549399 2.7594067e-05 0.00028735526)
(-5.7858989e-06 6.3879853e-06 -2.0560471e-05)
(0.00017045856 2.4972886e-05 0.00026559247)
(0.00010649023 6.5725143e-06 0.00015900346)
(-9.2564874e-06 1.5240161e-05 -2.3500683e-05)
(-3.595588e-06 -9.422572e-06 5.4357157e-06)
(8.3837291e-07 -6.3153767e-06 -1.2290791e-06)
(0.00011912304 1.1811754e-06 0.00019816839)
(-4.7257468e-07 -5.9619888e-06 -1.5006143e-06)
(-3.086193e-06 -5.4482185e-06 2.1667372e-06)
(8.9879058e-05 -9.2743817e-06 0.00011549549)
(0.00012879728 -3.1555627e-05 0.00017902775)
(0.00011181478 2.8581938e-05 0.00016208417)
(0.00017286427 7.7391558e-06 0.00030460146)
(-8.3926707e-07 -8.48748e-06 2.5616096e-06)
(0.00016405325 -2.1760197e-05 0.00028025418)
(3.270578e-05 -1.4520998e-05 3.5645862e-05)
(0.00010155455 -1.6994633e-06 0.00017208935)
(2.101071e-05 3.9112993e-06 6.8582884e-05)
(0.00012962711 -2.3971881e-06 0.00020452159)
(0.00011780941 3.3395625e-06 0.00019736673)
(0.00010355516 8.1449081e-06 0.00017354251)
(2.2748728e-05 1.7540754e-06 6.9650291e-05)
(0.00012959574 7.4042477e-06 0.00020399464)
(0.00010032122 8.2093056e-06 0.0001589206)
(0.00013974933 4.46585e-06 0.00020917284)
(0.0001563024 2.8340056e-05 0.00025111452)
(0.00011007767 4.8374076e-06 0.00018171098)
(0.00011270898 3.3079828e-06 0.00019666348)
(0.00010903509 1.9741761e-07 0.000186918)
(0.00011763227 -2.2378365e-07 0.00019570656)
(0.0001125246 -1.4026242e-06 0.00019217746)
(0.00018902091 -7.1760422e-07 0.00032404505)
(0.00011807174 -1.9249102e-06 0.00019683053)
(0.00011317782 1.4952924e-06 0.0001889951)
(0.00011484127 -2.7019066e-06 0.00019460311)
(0.00012547932 3.7783366e-06 0.00021092861)
(0.00011730213 2.8991261e-07 0.00020235503)
(0.0001762132 2.7225577e-05 0.00027301317)
(0.00013270154 3.4635061e-06 0.00021403033)
(6.2349613e-05 -1.4109558e-05 7.0122922e-05)
(0.00012476195 4.9711441e-06 0.00020612585)
(-5.5989558e-06 8.5546606e-06 -8.0381534e-06)
(0.00011639221 -2.5200544e-06 0.00020124598)
(0.00012768736 2.2836045e-06 0.00022031635)
(0.00017314627 2.7372581e-05 0.00028946339)
(0.00011627557 2.9868458e-06 0.00018958295)
(0.00012245642 1.8481111e-07 0.00020410208)
(0.00012118325 5.0754396e-06 0.00021131763)
(0.00012238203 -9.9984821e-07 0.00020558415)
(3.5609474e-05 -1.144158e-05 3.199749e-05)
(0.00011589851 -5.3380382e-06 0.00020341576)
(0.00016553513 2.3658185e-05 0.00026282824)
(1.47018e-06 -1.1088281e-05 3.9251765e-06)
(0.00012901116 1.9885095e-06 0.00021777495)
(0.00011401525 9.7164275e-06 0.00018660797)
(0.00013940199 1.7567025e-06 0.00022470935)
(0.0001179007 3.9319813e-06 0.00019194313)
(6.8515997e-05 -7.1058066e-06 7.3501945e-05)
(8.5937989e-06 -1.0135474e-06 4.1163435e-05)
(0.00012437077 -4.9027366e-06 0.00020558813)
(0.00011660609 4.4402041e-06 0.00019186665)
(9.1675577e-06 3.7897774e-06 4.6852127e-05)
(2.1739386e-05 1.7003208e-06 7.1077526e-05)
(0.00011105902 -7.1145589e-06 0.00017909668)
(0.00015806284 2.2008422e-05 0.00025065523)
(0.00017768772 2.4999435e-05 0.00027493522)
(7.5304451e-05 -7.5639928e-06 8.1991387e-05)
(0.00011034243 -4.2561607e-06 0.00017100002)
(0.00013100334 2.026485e-06 0.00022837274)
(4.3442418e-05 -7.6105669e-06 4.2069278e-05)
(3.8200226e-05 -8.1212607e-06 3.7600424e-05)
(0.00019058394 -2.5896888e-05 0.00030028315)
(0.00018761648 -2.7450347e-05 0.00029641247)
(-2.0752321e-06 -8.1316151e-06 3.7478529e-06)
(0.00010780062 -8.2769031e-06 0.00018143324)
(8.8576415e-06 -4.8111159e-06 -4.2134795e-09)
(1.383629e-05 -1.4376861e-05 5.5997526e-06)
(5.6353994e-06 -8.2701435e-06 7.5844412e-06)
(0.00017929559 2.750477e-05 0.00028643145)
(5.3867028e-05 -1.3734486e-05 5.8194377e-05)
(1.1741808e-05 -1.2409256e-05 1.1091803e-05)
(0.00015957257 2.1265397e-05 0.00026133075)
(6.0786646e-05 -4.8500541e-06 8.7992234e-05)
(2.5474436e-05 -2.0202663e-05 2.7344096e-05)
(0.00016116332 2.0273594e-05 0.00025809556)
(3.5048429e-05 4.8326434e-07 6.1597155e-05)
(9.0135357e-05 -1.6938948e-06 0.00013494349)
(2.0411666e-05 -1.3411889e-05 1.6694252e-05)
(0.0001168775 -3.6471018e-06 0.0001871738)
(2.7570414e-05 -2.0010565e-05 3.0461237e-05)
(3.1311904e-05 -6.5363832e-06 5.6497634e-05)
(9.7926334e-05 -1.5373861e-06 0.00014746772)
(-1.6418992e-07 -6.8329327e-06 1.5325519e-05)
(0.0001148389 -9.1865114e-06 0.00018897848)
(2.9430036e-05 -1.3938627e-05 2.4415424e-05)
(-5.6308271e-06 -7.8870181e-06 1.0013921e-05)
(3.1635028e-05 -1.6354718e-05 3.0873251e-05)
(0.00011781867 9.4763812e-06 0.00018785531)
(3.4075379e-05 -1.9975306e-05 3.4822764e-05)
(-4.945169e-06 -7.7714237e-06 5.9786056e-06)
(0.00013071534 1.6867895e-05 0.00022215462)
(0.00019230668 1.8789183e-05 0.00032141836)
(0.00019537926 1.7684738e-05 0.00032694978)
(0.00018922227 1.3055893e-05 0.0003208004)
(0.00011001071 7.6991046e-06 0.00018660738)
(-3.8797034e-06 -8.7740746e-06 2.366395e-06)
(0.00019002055 9.6561298e-06 0.00032250717)
(-1.0348108e-06 -5.8118864e-06 -3.7484354e-07)
(0.00019387546 1.7091766e-05 0.00032330115)
(0.00012806515 -4.7754539e-06 0.0002208143)
(0.00018337185 9.6277781e-06 0.00031937593)
(-1.4582923e-06 -8.0628276e-06 7.5489611e-07)
(0.00015680956 1.7424385e-05 0.00025730708)
(0.00014837229 3.3969768e-05 0.00018086642)
(0.00018836925 1.4405193e-05 0.00031579915)
(0.00013506418 -3.6330943e-06 0.0002212741)
(0.00018653128 2.1224435e-06 0.0003150023)
(0.00015704103 1.6970311e-05 0.00026016035)
(0.00017544194 2.4473553e-05 0.00027299923)
(0.00018417314 1.5392245e-05 0.00031085678)
(-5.5799581e-08 -6.3044241e-06 -2.0068454e-06)
(0.0001899385 2.6908937e-05 0.00030474915)
(9.6343401e-05 -1.3360802e-06 0.00017639372)
(-2.5428705e-06 -7.7872998e-06 1.8069593e-06)
(0.00019680172 1.7003408e-05 0.00032785507)
(0.00015618045 1.609023e-05 0.00025867177)
(0.00011117528 -7.1799019e-06 0.00018198359)
(0.00017600339 2.4764146e-05 0.00029668621)
(0.00018806084 2.6606496e-05 0.00030109373)
(0.00016818069 1.9265883e-05 0.00027260097)
(0.00019044824 1.9185305e-05 0.00032294186)
(0.00018011396 2.0479564e-06 0.00030915394)
(0.00015932963 1.8190357e-05 0.00026934022)
(4.788863e-05 -9.0201162e-06 5.011486e-05)
(0.00017157092 1.4171913e-05 0.00030626514)
(4.9762543e-05 -1.4257989e-05 5.5436168e-05)
(0.00018233616 1.0801405e-06 0.00032098081)
(0.00015866343 2.1835606e-05 0.00026406323)
(0.00016282068 3.6707874e-05 0.00019480841)
(0.00016029607 1.7246757e-05 0.00026683291)
(0.00018047607 1.6290061e-05 0.00031737745)
(2.5726933e-05 -4.7466431e-06 7.252309e-05)
(0.00010099308 -5.1672072e-06 0.00017128206)
(0.00015840963 1.5807211e-05 0.00027420757)
(0.0001714071 9.68972e-06 0.00029193882)
(0.00016326578 1.3161657e-05 0.00027171171)
(0.00016975677 4.4645187e-06 0.00029116488)
(0.0001404782 1.0956181e-05 0.00024570523)
(0.00010781855 -3.7950414e-06 0.00017069189)
(2.5778458e-05 6.9190432e-07 6.8598216e-05)
(0.00018432665 -2.0380246e-06 0.00031715118)
(0.0001631803 -1.5687495e-06 0.00029426689)
(0.00015981934 1.8657163e-05 0.00026322448)
(2.4289158e-05 3.1890459e-06 6.9283565e-05)
(0.00016433842 9.1099974e-06 0.0002975285)
(6.0564263e-05 -1.1569677e-05 6.2102792e-05)
(0.00015857437 1.6378435e-05 0.00027065557)
(0.00014051089 8.7904749e-06 0.00025194026)
(7.350587e-05 -1.0061927e-05 8.2445012e-05)
(0.00018850158 -3.3230561e-06 0.0003161356)
(0.00015266798 5.3481109e-06 0.00027239848)
(8.8476483e-06 -9.9102278e-06 4.8795279e-06)
(1.3584726e-05 -1.6992947e-05 1.4694722e-05)
(0.00015744099 3.3857208e-05 0.00018663565)
(6.4663792e-05 -1.2606766e-05 6.9958366e-05)
(0.00016447457 1.022934e-05 0.00028645244)
(0.00011660589 9.6486087e-06 0.00017861451)
(2.3911149e-05 -1.6780113e-05 1.9342872e-05)
(0.00017036481 1.7792766e-05 0.00028420945)
(-3.5314661e-06 -6.2146757e-06 4.2285566e-07)
(7.9419089e-05 -1.6662587e-05 8.8475995e-05)
(0.00017411464 8.7900636e-06 0.00029131605)
(0.00018376524 2.1738386e-05 0.00028885554)
(3.5887599e-05 -1.5827459e-05 3.0473785e-05)
(0.00013013516 9.5722944e-06 0.00022772442)
(0.00013374641 7.1623544e-06 0.00022729423)
(0.00017736525 1.6726801e-05 0.00028551217)
(0.00017209321 2.9818048e-05 0.00019952374)
(0.00018235356 4.0878279e-05 0.00023300767)
(0.00018209723 -3.5087251e-06 0.00031326824)
(0.00018024393 2.104918e-05 0.00028577673)
(0.000172316 1.7241145e-05 0.00028299808)
(0.00010572265 6.5338104e-06 0.00017135622)
(0.00015613009 3.8266915e-05 0.00019502649)
(0.00015288477 2.4885156e-06 0.00027890329)
(0.0001221694 -4.438685e-06 0.00020499735)
(0.00012137552 -5.0259202e-06 0.0002055271)
(0.00016045307 4.84361e-06 0.0002723428)
(0.00016460803 8.8749938e-06 0.00028994063)
(0.00016574388 9.3607766e-06 0.00027357007)
(0.00015945424 5.4349088e-06 0.00027097998)
(0.00015491238 1.3343549e-05 0.00026625021)
(3.6995302e-05 -9.2803959e-06 2.9107582e-05)
(0.00015677911 5.2260574e-06 0.00026887903)
(0.000119535 1.6054682e-06 0.00021450737)
(0.00013328176 -7.326381e-06 0.0002263144)
(0.00015799124 9.9311406e-06 0.00027136007)
(0.00017153113 3.5874758e-05 0.00020326326)
(0.00017605718 4.686516e-06 0.00030528737)
(-4.166834e-06 -4.7607116e-06 4.0049692e-07)
(0.00016451941 2.1837568e-06 0.00029138539)
(0.00019294422 3.4416831e-06 0.00033048105)
(0.00010570063 -7.5652148e-06 0.00017742848)
(-4.073819e-06 -4.2236632e-06 2.1996738e-06)
(4.1574027e-05 -1.9269846e-05 4.0386798e-05)
(-2.7272042e-06 -4.8145204e-06 -2.2460416e-06)
(0.00016601843 2.4336332e-05 0.00024608337)
(0.00011364571 -6.3334987e-06 0.00018329516)
(-8.3564048e-06 1.2110557e-05 -1.2543815e-05)
(-6.7972428e-07 -5.5745643e-06 -2.6469338e-06)
(-4.0673851e-06 -6.3817098e-06 6.6624652e-06)
(0.00015577567 2.8329471e-05 0.00018414788)
(-3.1571531e-06 -5.3093012e-06 1.4545052e-06)
(-1.5067579e-06 -6.489322e-06 -3.8749451e-07)
(4.0645915e-05 -1.2853889e-05 4.1109605e-05)
(3.924748e-05 -1.3754188e-05 4.2203073e-05)
(3.500667e-05 -1.1630611e-05 3.3360454e-05)
(4.7854958e-05 -1.3257147e-05 4.810971e-05)
(5.0387845e-05 -1.5616509e-05 5.3378629e-05)
(4.3347266e-05 -1.3221364e-05 4.0704055e-05)
(0.00021085527 2.6691594e-05 0.00024054536)
(4.345478e-05 -1.6744207e-05 4.4528754e-05)
(0.00016591968 -2.9786194e-06 0.00028446489)
(5.7218566e-05 -1.4006141e-05 5.7532153e-05)
(-1.9924733e-06 -8.3448567e-06 4.6667103e-06)
(6.0474581e-05 -1.5695984e-05 6.4358984e-05)
(0.00012867584 2.6566929e-06 0.00022257159)
(6.8147998e-05 -1.576235e-05 7.4419754e-05)
(0.00011862713 3.7632479e-07 0.00021815087)
(8.9298331e-05 -2.4148936e-05 0.0001689514)
(0.0001650991 1.6583516e-07 0.00029019082)
(3.2329362e-05 -1.3601743e-05 2.2530929e-05)
(9.6305492e-05 -5.6192115e-06 0.00016159899)
(0.00016385357 -7.3130827e-06 0.0002824674)
(6.0648865e-06 -9.9686547e-06 6.7090497e-06)
(0.00010656057 -1.158911e-06 0.00017258165)
(0.00016321226 -3.4028438e-06 0.00027944185)
(0.00012764068 -6.5082242e-06 0.00020643405)
(4.3277498e-05 -8.309136e-08 7.1637112e-05)
(0.00010989253 1.0622472e-05 0.00017706405)
(0.00011132426 6.677845e-06 0.00018303194)
(-4.993282e-07 -9.1424465e-06 2.6047933e-06)
(6.3117147e-07 -2.9062877e-06 -2.9078527e-06)
(5.1383669e-05 -7.3411522e-08 7.3216019e-05)
(0.00016224055 -6.1453847e-06 0.00027941728)
(3.5575155e-06 5.7130447e-06 2.6393051e-05)
(2.1085222e-05 2.2618164e-06 6.0055074e-05)
(0.00017217603 1.3091156e-05 0.00028485582)
(9.7078349e-05 -5.405505e-06 0.00016256001)
(0.00015591571 2.6993962e-05 0.00024787184)
(1.3037706e-06 -6.5713275e-06 -1.0241022e-06)
(2.4823696e-05 -1.6292624e-05 2.0273261e-05)
(-3.4251259e-06 -4.0281497e-06 -1.7175184e-06)
(3.6015669e-05 -2.0176964e-05 3.310312e-05)
(-7.1849113e-07 -5.2806851e-06 -1.9484077e-06)
(-4.4341925e-06 -2.5821982e-06 -5.8899976e-07)
(-2.7640941e-06 -3.9651587e-06 -2.4602413e-06)
(1.5849557e-05 -1.4667094e-05 1.2644797e-05)
(0.00016983544 -7.1048344e-06 0.00028648257)
(-2.8768065e-06 -2.0030397e-06 -2.2582663e-06)
(-3.8941678e-06 -2.5079845e-06 -3.9850364e-06)
(-3.5196007e-06 -2.2698456e-06 -7.0119743e-06)
(-5.3032805e-06 -1.4935175e-06 -5.2222906e-06)
(-1.8660605e-06 -3.7681319e-06 -4.7241207e-06)
(-1.8616685e-06 -4.2060388e-06 -3.3177922e-06)
(0.00011398679 -5.3585889e-06 0.00018497987)
(-5.0224155e-06 8.5603329e-06 -7.2318915e-06)
(0.00015671576 2.2824373e-05 0.00025698863)
(0.00015643705 1.8186399e-05 0.0002543972)
(-9.7072476e-06 7.894854e-06 -2.1628041e-05)
(4.9847988e-05 -2.0632229e-05 4.854494e-05)
(3.3206432e-05 3.8833991e-06 6.8571374e-05)
(0.00016004417 2.7828524e-05 0.0001800347)
(3.2599986e-05 5.8391701e-06 6.6640518e-05)
(4.4444687e-05 -2.3813434e-05 4.6654702e-05)
(0.00012840796 2.8365005e-05 0.00015060065)
(-1.9512812e-06 -4.4026893e-06 5.5718061e-07)
(2.9816821e-05 3.1343792e-06 6.5437109e-05)
(3.6761449e-05 -3.2598475e-06 6.9048616e-05)
(8.1416967e-06 -1.4739909e-05 6.270631e-06)
(0.00011749385 9.1159643e-06 0.00019200623)
(0.00016971775 3.2241946e-05 0.00019234874)
(0.0001879824 3.9024995e-05 0.00021399243)
(5.0809314e-05 -1.6726993e-05 5.0869091e-05)
(5.7030849e-05 -1.7484566e-05 5.784191e-05)
(0.000172755 3.0993112e-05 0.00019441809)
(0.00012640812 7.9502218e-06 0.00020042931)
(0.00012175899 9.6845442e-06 0.00019786541)
(-2.9813849e-06 -3.6763697e-06 1.3648927e-06)
(0.00010260193 -1.0237176e-05 0.00016185463)
(3.9955864e-05 -1.8271518e-05 3.3942643e-05)
(0.00019165624 3.7145696e-05 0.00021525749)
(2.4844979e-05 -1.6701045e-05 1.9076986e-05)
(3.6531799e-05 -2.7185759e-06 7.489004e-05)
(2.653167e-05 2.4607013e-06 6.3007443e-05)
(-2.0277366e-06 -2.9537663e-06 6.5222378e-07)
(1.8150026e-05 -1.4044807e-05 1.2565338e-05)
(0.00013735299 -3.1787994e-06 0.0002167065)
(1.0884732e-06 -1.0317844e-05 3.9621462e-06)
(0.00020282224 3.3242364e-05 0.00023372806)
(-4.2466102e-06 -4.7879254e-06 6.765025e-06)
(-2.069224e-06 -1.6203569e-06 2.008713e-06)
(0.00016981425 2.4831117e-05 0.00019357122)
(-2.989882e-06 -5.6432546e-06 6.0003916e-06)
(5.7175376e-06 -5.5619452e-06 2.1309727e-06)
(0.00016388368 2.7304643e-05 0.00019147304)
(4.059471e-05 -1.8462782e-05 3.6402517e-05)
(-2.1641592e-06 -6.0716199e-06 5.4145267e-06)
(-4.3766277e-06 -7.4042713e-06 6.519601e-06)
(1.3979755e-05 2.681464e-06 5.3959322e-05)
(-7.6460025e-06 9.2636714e-06 -1.0323103e-05)
(0.00015821876 3.6100212e-05 0.00018764437)
(0.00015298411 1.9650222e-05 0.00024437065)
(0.0001249867 -7.8346624e-06 0.00021093695)
(0.0001576245 2.3159911e-05 0.00025034808)
(3.3024478e-05 -1.9376534e-05 2.5132787e-05)
(2.9178117e-05 4.8080136e-06 5.6516051e-05)
(2.7242375e-05 -1.0180234e-05 1.666438e-05)
(-3.4571038e-06 -2.2457193e-06 -6.7829092e-07)
(2.8677607e-05 -1.3747486e-05 2.5415982e-05)
(2.3597509e-05 -1.7167204e-05 2.0118389e-05)
(3.0255197e-05 -2.0066331e-05 3.1686946e-05)
(2.3993048e-05 -4.2001271e-07 5.7766829e-05)
(1.604085e-05 -1.7086648e-05 1.7011184e-05)
(1.2843447e-05 -1.8503395e-05 1.6471494e-05)
(2.6682286e-05 -1.6607425e-05 2.07764e-05)
(3.1772274e-05 -1.8404736e-05 2.543537e-05)
(4.4911654e-05 -2.0081986e-05 3.6888538e-05)
(1.7946201e-05 -1.5729139e-05 1.4585546e-05)
(1.2262973e-05 -1.4988994e-05 1.0746697e-05)
(2.3307045e-05 -1.84754e-05 1.5717262e-05)
(1.4459776e-05 -1.6576523e-05 9.671162e-06)
(1.0486855e-06 7.7710444e-07 -9.8760448e-07)
(5.7147541e-05 1.2551991e-05 8.6304953e-05)
(-3.2837828e-06 1.6497451e-06 -8.2097211e-06)
(5.1489965e-05 -3.3367135e-06 6.4975158e-05)
(3.949553e-05 -4.441169e-06 6.1685476e-05)
(3.1910755e-05 -1.6548047e-06 5.127322e-05)
(4.5686907e-05 8.0357487e-06 6.8642421e-05)
(0.00015372704 2.7186884e-05 0.00017205245)
(0.00016162278 2.0642446e-05 0.00017758285)
(0.00015892588 2.5877941e-05 0.00017425301)
(0.000165926 2.2496045e-05 0.00018453695)
(0.00016727553 2.1897183e-05 0.00017631195)
(0.00016166913 2.4575657e-05 0.00018177129)
(0.00017701206 2.0754837e-05 0.00018663366)
(0.00017199797 1.8344268e-05 0.00017710618)
(0.00015850994 2.425158e-05 0.00016421758)
(0.00016859011 2.8242274e-05 0.00018500477)
(0.00017274961 2.4156083e-05 0.0001813777)
(0.0001672531 2.1149854e-05 0.00017439108)
(0.00016344317 1.8639569e-05 0.00016101678)
(0.00016687292 1.8468673e-05 0.00016302772)
(0.00016726747 2.1665336e-05 0.00016513731)
(0.00017681163 1.4867713e-05 0.00017563095)
(0.0001767146 1.118313e-05 0.00016888973)
(0.00015971166 2.1266584e-05 0.00017723679)
(0.00017361018 1.3590455e-05 0.00016493216)
(0.00015319703 1.7571704e-05 0.00015226203)
(0.00017138457 2.522196e-05 0.00018000283)
(0.00012407014 2.528195e-05 0.00014106863)
(0.00016824072 2.0427093e-05 0.00017134214)
(0.00015319755 2.1760224e-05 0.00016469458)
(0.00016114971 1.9295901e-05 0.00018233579)
(0.00016865294 2.8603484e-05 0.00017404118)
(0.00015454092 1.5573202e-05 0.00016270191)
(0.00014541132 1.3129052e-05 0.00014804656)
(0.00015787463 1.5385659e-05 0.00015117803)
(0.0001643086 1.1500788e-05 0.00015557323)
(0.00014844487 1.64311e-05 0.00015521179)
(0.0001596362 2.9115182e-05 0.00017191169)
(0.00013133222 1.2279103e-05 0.00012814268)
(0.00015674488 7.8594765e-06 0.00015799247)
(0.00016190247 8.7918896e-06 0.00014910039)
(0.00013090188 3.4977785e-06 0.00012416631)
(0.00017851757 3.5980167e-05 0.00019751518)
(0.00015421514 7.3469874e-06 0.00014069577)
(0.00015837987 1.943913e-05 0.00015232045)
(0.00016483434 1.7176251e-05 0.00016306932)
(0.00012576528 6.3812143e-06 0.00012250183)
(0.00017251307 1.8666521e-05 0.0001793738)
(0.00012465475 8.8440804e-06 0.00011814202)
(0.0001631455 2.2948265e-05 0.00015820977)
(0.00017084586 2.2257307e-05 0.00017435038)
(0.00016233505 2.6566314e-05 0.00017710463)
(0.00016122007 2.5406776e-05 0.00017260332)
(0.00014667414 1.1290232e-05 0.00014098318)
(0.00016141929 1.4603917e-05 0.00015848963)
(0.00015287447 1.2683002e-05 0.00015256677)
(0.00016502509 2.3828744e-05 0.00017298384)
(0.00013770912 9.9076794e-06 0.0001445772)
(0.00015995577 2.2135995e-05 0.00016011207)
(0.00015601365 2.283463e-05 0.00017901112)
(0.00014786163 2.0141271e-05 0.0001621886)
(0.00016015259 2.2108224e-05 0.00015387958)
(0.0001650917 3.0666149e-06 0.00015049044)
(0.0001643102 1.5978008e-05 0.00015274849)
(0.00015753998 2.889516e-06 0.00014057734)
(0.00014775501 1.2355923e-05 0.00013736089)
(0.00014563215 6.3622329e-06 0.00013931312)
(0.0001261281 8.3851871e-06 0.00011572645)
(0.00013091735 1.542652e-05 0.00012323529)
(0.00015435298 6.8179017e-06 0.00015005907)
(0.00012145529 3.2495185e-06 0.00010836583)
(0.00015388306 1.8374315e-06 0.00014143401)
(0.00014264496 1.6154407e-05 0.00015661457)
(0.00013572215 1.3036998e-05 0.00014024379)
(0.00015048395 2.7442795e-05 0.00016688539)
(0.00013238078 4.3382962e-06 0.00012142107)
(0.00014704954 3.0052252e-05 0.00016049866)
(0.00014603759 4.2795897e-06 0.00013220704)
(0.00014569566 1.5794742e-07 0.00012537685)
(0.00014717628 1.4350019e-05 0.00016272313)
(-7.9275879e-06 8.8750946e-06 -7.6068609e-06)
(0.00014888065 -6.0082131e-06 0.00012584487)
(-1.0362568e-05 1.035098e-05 -8.9643037e-06)
(0.00015011799 1.0594222e-05 0.00014161428)
(0.00016744788 2.123863e-05 0.00017549432)
(-6.3709678e-06 1.0246697e-05 -8.8253551e-06)
(0.00016461812 1.3184842e-05 0.00015727781)
(0.00017385278 3.8502013e-05 0.00019293739)
(0.00015994286 1.601657e-05 0.00014624267)
(0.00017595073 4.6241484e-05 0.00021079482)
(0.00015345681 1.4816325e-05 0.00016656003)
(0.00018091529 3.8508813e-05 0.00020066366)
(0.00012028203 8.4770318e-06 0.00011266189)
(0.000151277 2.4884031e-05 0.00015619277)
(0.00012911843 5.1372703e-06 0.00011802361)
(0.00015971352 -2.1975515e-06 0.00014231699)
(0.00015519264 3.3702681e-06 0.00013545637)
(0.00016273878 1.8580023e-05 0.00015106353)
(0.00017297529 2.9167551e-05 0.00018195226)
(9.8126306e-05 7.4413076e-06 0.00013285836)
(0.00012698179 -5.3015274e-06 0.00010860754)
(9.5286488e-05 8.1940375e-06 0.00013254078)
(-1.1443206e-05 1.266698e-05 -1.2529265e-05)
(0.00015377912 3.5480792e-05 0.00018062612)
(0.00015480093 2.3923285e-05 0.00015878022)
(0.00014071359 -3.2577549e-06 0.00012493289)
(0.00014346132 -2.1992683e-06 0.00011851475)
(0.00015814406 6.4510361e-06 0.00014307051)
(0.00015851068 -1.2193363e-06 0.00013852577)
(0.00014795229 2.9543635e-07 0.00012689966)
(0.00016408653 7.8641039e-06 0.00014874542)
(0.00012338096 -3.8386345e-06 0.00010181143)
(0.00014384346 1.1615866e-05 0.00013459807)
(1.6476808e-05 8.35978e-06 4.6037771e-05)
(0.00016240116 5.0664302e-06 0.00014614325)
(0.00010421039 -8.4974243e-06 8.8335086e-05)
(0.00011444396 -1.6547909e-06 0.00010063711)
(9.25484e-05 6.2128959e-06 0.00012361826)
(0.00013700477 -4.024655e-06 0.00011364858)
(0.00012299506 -7.7873309e-06 0.00010568871)
(0.00014305228 1.7689381e-05 0.00014110012)
(0.00014551324 6.6216641e-06 0.00013029106)
(0.00014061768 1.7347068e-05 0.0001372811)
(0.00015594362 6.3615505e-06 0.0001348171)
(0.0001125616 -1.5728265e-06 9.4658151e-05)
(0.00013311382 1.0739603e-06 0.00011234761)
(0.00012306169 -1.3388555e-05 0.00010076803)
(0.0001207277 -6.953733e-06 0.00010006309)
(0.00013822423 2.0852578e-06 0.00011964579)
(0.00012297118 -8.8896777e-06 0.00010185761)
(0.00013375843 -6.4659769e-06 0.00011251936)
(0.00012579243 -6.2207477e-06 0.00010484165)
(0.00010404889 -5.7521695e-06 8.366158e-05)
(0.00011910783 -1.0724776e-05 9.8142086e-05)
(0.00012151545 -1.3028925e-05 0.0001006884)
(0.00014878643 7.9854143e-06 0.00014267063)
(0.00012055593 -1.2468235e-05 9.6110349e-05)
(0.00011804861 -1.1910431e-05 9.3382041e-05)
(0.00012342811 -5.7482137e-06 9.8545971e-05)
(-1.0964664e-05 9.4811004e-06 -9.9582039e-06)
(0.00011457784 -1.3772986e-05 9.20732e-05)
(0.00012220291 -1.8072896e-05 9.8064762e-05)
(0.00012796084 -2.0477281e-05 0.00017981303)
(0.0001178347 -1.880706e-05 9.2517967e-05)
(0.0001197231 -1.5571028e-05 9.8417726e-05)
(0.00011166338 -1.6919521e-05 8.7758054e-05)
(0.00012594055 -9.4693759e-06 0.00010522552)
(0.0001175772 -1.5543974e-05 9.391745e-05)
(-7.0087677e-06 1.3420277e-05 -1.7969729e-05)
(0.00011439709 -1.7496007e-05 8.5037522e-05)