/*--------------------------------*- C++ -*----------------------------------*\
  =========                 |
  \\      /  F ield         | OpenFOAM: The Open Source CFD Toolbox
   \\    /   O peration     | Website:  https://openfoam.org
    \\  /    A nd           | Version:  11
     \\/     M anipulation  |
\*---------------------------------------------------------------------------*/
FoamFile
{
    format      ascii;
    class       volVectorField;
    location    "907";
    object      wallShearStress;
}
// * * * * * * * * * * * * * * * * * * * * * * * * * * * * * * * * * * * * * //

dimensions      [0 2 -2 0 0 0 0];

internalField   uniform (0 0 0);

boundaryField
{
    wall-fluid_domain
    {
        type            calculated;
        value           nonuniform List<vector> 
34907
(
(2.3901143e-05 4.3906749e-06 7.2703804e-07)
(2.5718656e-05 6.7529181e-07 1.5936885e-05)
(3.1975878e-05 -4.4791882e-06 1.2049767e-05)
(2.4318476e-05 -6.0620223e-06 7.8281043e-06)
(-1.5686225e-06 2.8154369e-08 -1.1606742e-06)
(2.4777442e-05 -6.9856601e-06 1.0294068e-05)
(-1.7669952e-06 1.2008516e-07 -1.130778e-06)
(2.1002027e-05 -5.5895816e-06 5.6371503e-06)
(2.4301863e-05 -4.6032334e-06 1.0870908e-05)
(2.410401e-05 5.8894054e-06 5.2481858e-06)
(2.4800187e-05 5.3350521e-06 9.5541829e-06)
(2.3346965e-05 5.8538916e-06 8.2230106e-06)
(1.8539124e-05 -4.9234955e-06 -7.2884562e-07)
(1.7724259e-05 4.9442133e-06 -1.3343868e-06)
(2.7166144e-05 5.6655356e-06 1.0945788e-05)
(1.9331276e-05 -4.9664284e-06 -6.4590956e-08)
(1.9445859e-05 4.3377342e-06 -7.0159974e-08)
(1.5543691e-06 -1.4388501e-06 -4.4483355e-07)
(3.8023866e-05 3.7320268e-07 1.5450949e-05)
(2.1675342e-05 -6.7721872e-06 3.806294e-06)
(2.1726228e-05 -6.1112277e-06 1.1374548e-05)
(2.2917161e-05 -6.6258175e-06 7.4703814e-06)
(2.6315818e-05 -1.3413401e-06 1.6468812e-05)
(1.1290209e-06 1.4096792e-06 -3.996125e-08)
(2.2101936e-05 4.409202e-06 3.162627e-06)
(2.0855124e-05 -5.6582548e-06 3.9729429e-06)
(2.1104601e-05 -5.8156648e-06 5.6484974e-06)
(2.2962633e-05 5.3846663e-06 8.412953e-06)
(2.1451448e-05 -1.0235178e-06 -5.4722881e-06)
(2.7132594e-05 4.0044721e-06 1.2556594e-05)
(2.113912e-05 6.9588441e-06 3.616725e-06)
(2.441312e-05 5.9558777e-06 1.0361536e-05)
(1.9259918e-05 4.6236342e-06 -5.3973991e-06)
(2.3871554e-05 -3.1695386e-06 1.1121849e-05)
(2.4310204e-05 -2.5280057e-06 1.450422e-05)
(2.4378123e-05 6.0853148e-06 1.3441113e-05)
(2.7501108e-05 3.0567775e-06 1.5517628e-05)
(2.3283337e-05 -4.3444767e-06 1.1469584e-05)
(7.1864863e-06 -3.3273908e-06 -2.6136653e-06)
(2.4615947e-05 -5.1337749e-06 8.4180109e-06)
(2.0431476e-05 -2.1853946e-06 4.8224647e-07)
(2.735174e-05 -2.6340985e-06 1.7480255e-05)
(2.3952037e-05 3.9227947e-06 4.324908e-07)
(2.5420558e-05 1.4259678e-06 1.5088807e-05)
(7.1995413e-06 2.2151303e-06 -2.5332451e-06)
(1.378526e-05 -1.6769541e-06 -5.7547661e-06)
(2.2611503e-05 -5.2478114e-06 9.4405151e-06)
(2.1253824e-05 6.4137271e-06 6.1439594e-06)
(2.6679769e-05 -3.7915985e-06 1.5356123e-05)
(1.6911096e-05 -7.8358724e-07 -7.8332703e-06)
(2.1549054e-05 7.1058608e-06 8.3872364e-06)
(2.7327271e-05 -3.7956675e-06 7.9552342e-06)
(2.7076596e-05 4.0367214e-06 3.4132093e-06)
(2.4655343e-05 3.4814899e-06 1.540822e-05)
(2.2974458e-05 -5.0048329e-06 2.4355937e-06)
(-1.4337229e-06 -3.6570029e-08 -9.202593e-07)
(2.6487074e-05 -4.4264457e-06 6.9597636e-06)
(2.3614202e-05 5.5799307e-06 4.0003114e-06)
(-9.8660103e-07 2.2267989e-07 -4.6478208e-07)
(-3.6535656e-07 -4.5252828e-07 -3.1755837e-07)
(-9.4822336e-07 -2.4140067e-07 -3.8805205e-07)
(-1.5534147e-06 -1.2352584e-07 -5.7667366e-07)
(2.6996624e-05 -4.8665954e-06 3.069632e-06)
(-5.4135529e-07 3.584703e-07 -2.2415669e-07)
(-1.0470407e-06 2.6763834e-07 -3.6449522e-07)
(1.9478892e-05 -3.1095728e-06 -4.0253599e-06)
(2.331891e-05 4.8764037e-06 7.8692866e-06)
(2.1650579e-05 4.080445e-06 2.1694345e-06)
(-6.3321868e-07 -4.1656048e-07 -4.3100812e-07)
(2.307315e-05 -1.5025519e-06 2.3955801e-07)
(2.3668787e-05 -5.3750969e-06 4.6604963e-06)
(2.0229642e-05 1.3699912e-06 -4.099869e-06)
(2.3571028e-05 4.9990114e-06 9.1562659e-06)
(2.5214161e-05 -5.5130449e-06 6.5517577e-06)
(2.1925612e-05 4.1626222e-06 1.4498317e-05)
(2.1233674e-05 7.0149727e-06 2.1438852e-06)
(2.7835471e-05 -4.9677712e-06 1.4949995e-05)
(2.2232146e-05 5.3524856e-06 9.4160948e-06)
(2.1713768e-05 -2.8923733e-06 1.3683786e-05)
(2.4577061e-05 6.280966e-06 5.7686178e-06)
(2.5567943e-05 3.1124492e-06 1.4707662e-05)
(2.7775602e-05 -3.8811494e-06 1.1638214e-05)
(-1.7574841e-06 -1.7166897e-07 -5.8617767e-07)
(2.1964909e-05 5.1008361e-06 1.1012376e-05)
(2.3127985e-05 -5.2612427e-06 1.1396279e-05)
(1.957702e-05 -2.5468606e-06 -1.7738099e-07)
(1.8713038e-05 -3.3294625e-06 4.8642098e-07)
(2.244347e-05 -7.7381945e-06 6.7103729e-06)
(2.2698978e-05 -5.1200458e-06 7.7147713e-06)
(2.256979e-05 8.541927e-07 -1.0165533e-06)
(2.1704091e-05 5.8062808e-06 1.0971511e-05)
(2.422722e-05 -2.5461877e-06 1.3327086e-05)
(2.1976639e-05 2.5866088e-06 3.2875527e-07)
(2.4770292e-05 2.8387807e-06 1.3397946e-05)
(2.2710974e-05 6.1070046e-06 9.7307699e-06)
(2.7727638e-05 4.9314712e-06 7.561628e-06)
(2.1399526e-05 5.5763639e-06 3.2609945e-06)
(2.2441283e-05 3.9510405e-06 3.1588218e-06)
(2.4036968e-05 -6.4748862e-06 8.462383e-06)
(2.5467563e-05 4.2577768e-06 1.383433e-05)
(2.3570274e-05 -5.456053e-06 3.9811485e-06)
(-2.4500905e-06 1.970651e-07 -3.9472441e-07)
(1.0401368e-05 -3.3451352e-06 -3.741976e-06)
(2.4005707e-05 -7.4089259e-06 4.9792194e-06)
(3.0825328e-05 -3.3721527e-06 1.2791179e-05)
(1.0639967e-05 1.187178e-06 -4.571333e-06)
(3.0165177e-05 6.899029e-07 1.9321595e-05)
(1.993693e-05 -4.1140504e-06 1.5032099e-06)
(2.2634775e-05 -4.9283047e-06 8.7604376e-06)
(2.5694265e-05 -6.3239604e-07 1.5166136e-05)
(2.5962862e-05 3.2805998e-06 4.2011393e-06)
(2.0672492e-05 3.4973567e-06 1.3634459e-06)
(2.3311156e-05 5.0111945e-07 1.504704e-05)
(2.4744239e-05 3.2013867e-06 1.2923757e-05)
(2.6814183e-05 -1.7102186e-06 1.6365878e-05)
(2.3354579e-05 6.3003249e-06 6.5093278e-06)
(2.2169016e-05 4.275877e-06 4.1236277e-06)
(2.6787582e-05 -2.8219474e-06 1.3164531e-05)
(2.0795462e-05 -6.0852487e-06 5.5938017e-06)
(2.4397248e-05 -4.3864632e-06 9.4455489e-06)
(2.6800096e-05 4.3071709e-06 1.3308582e-05)
(2.4797074e-05 -3.7673189e-06 1.1615742e-05)
(1.5175788e-05 -3.2386962e-06 -6.1784324e-06)
(1.4160458e-05 3.8951017e-06 -6.2761625e-06)
(2.0765971e-05 -5.3705052e-06 8.8327883e-06)
(2.4822646e-05 -6.5725502e-06 5.7074899e-06)
(2.1044755e-05 -6.0874025e-06 7.2191626e-06)
(2.8045283e-05 3.137682e-06 1.2679942e-05)
(2.2090589e-05 -4.2036393e-06 6.8710363e-06)
(2.7195474e-05 -4.1428075e-06 1.4922315e-05)
(2.2736715e-05 -4.1349804e-06 8.0214917e-06)
(2.2268017e-05 4.4946653e-06 8.4154355e-06)
(2.0561931e-05 4.0493477e-06 2.8525701e-06)
(2.0031205e-05 4.4094697e-06 2.8848355e-06)
(1.7609973e-05 -3.0139251e-06 -2.713774e-06)
(-1.8694856e-07 -3.5346491e-07 -2.0169756e-07)
(1.8680818e-05 4.0579225e-06 -3.3375033e-06)
(-2.4619258e-07 4.8838332e-07 -1.3964171e-07)
(2.0764876e-05 4.8917344e-06 7.104752e-06)
(2.3039421e-05 3.9336594e-06 9.0223117e-06)
(2.3677831e-05 7.3777902e-07 1.5695922e-05)
(2.0302237e-05 -4.8937957e-06 2.2479173e-06)
(2.2648072e-05 -4.2958871e-06 3.063329e-06)
(7.0420132e-06 -1.8405909e-06 -2.5707559e-06)
(7.4660284e-06 2.6965454e-06 -2.5151548e-06)
(7.1626899e-06 -2.5709314e-06 -2.2658156e-06)
(2.2308881e-05 5.1774393e-06 8.776451e-06)
(2.329322e-05 4.6129679e-06 5.4500982e-06)
(6.6248295e-06 2.6006063e-06 -1.923217e-06)
(-1.0811762e-06 1.4453532e-07 -7.1967685e-07)
(2.1768034e-05 4.7807184e-06 9.1167782e-06)
(-2.9452842e-07 4.8748629e-07 -4.3970324e-07)
(1.5444761e-05 -2.0710283e-06 -4.7725248e-06)
(-7.4291379e-07 3.7716142e-07 -4.2012101e-07)
(-1.2763859e-06 1.8830849e-07 -6.5186562e-07)
(-3.3061982e-07 -5.9133117e-07 -3.6572653e-07)
(1.7914795e-05 3.7632595e-06 -6.0567596e-06)
(-7.5907223e-07 -2.9398847e-07 -7.1001719e-07)
(-6.5617482e-07 -5.2158124e-07 -2.7539022e-07)
(-1.9929341e-06 4.5238674e-08 -7.5452252e-07)
(-1.1341194e-06 -2.3876878e-07 -7.2556525e-07)
(1.9942312e-05 6.5442066e-06 7.6003677e-06)
(1.7118505e-05 -3.0259447e-06 7.3282113e-07)
(4.0887055e-06 2.0868049e-06 -1.3711961e-06)
(2.0297343e-05 -4.6607337e-07 4.0827189e-07)
(1.9184739e-05 -3.5951128e-06 -4.470046e-06)
(1.9898109e-05 2.7654408e-06 -4.9823407e-06)
(2.8595948e-06 1.7797833e-06 -5.7657175e-07)
(2.6752365e-05 -4.3929362e-06 6.2830007e-06)
(1.9038839e-05 2.0877321e-06 1.7785423e-07)
(2.5274399e-05 2.0632219e-06 1.3981923e-06)
(2.1791518e-05 -5.4190461e-06 8.2455046e-06)
(1.9270436e-05 -4.1408124e-06 2.0891387e-06)
(3.2001139e-06 -1.7869235e-06 -1.0736746e-06)
(7.8201076e-06 -2.8709114e-06 -2.6276428e-06)
(-1.7043494e-06 -8.0738296e-08 -1.2419927e-06)
(2.8304897e-05 -3.0189016e-06 9.4463772e-06)
(8.2397829e-06 2.6615109e-06 -2.2444744e-06)
(2.4953042e-05 -3.5642588e-06 1.058227e-05)
(2.5830065e-05 4.2788232e-06 1.1447569e-05)
(2.0191057e-05 4.792954e-06 4.2667474e-06)
(2.2004588e-05 -3.4960606e-06 8.9608115e-06)
(2.3949998e-05 1.748032e-06 1.4563245e-05)
(2.6832519e-05 -1.4166635e-06 1.671061e-05)
(9.0419515e-06 -3.4374295e-06 -3.1701835e-06)
(2.2293206e-05 -4.6279337e-06 7.7959207e-06)
(8.1058541e-06 -2.4730343e-06 -3.4262634e-06)
(8.0802545e-06 -1.105726e-06 -2.6609671e-06)
(8.7971982e-06 -9.6748682e-07 -3.5975429e-06)
(8.4234139e-06 2.4001939e-06 -2.4945932e-06)
(2.5515159e-05 -4.3979207e-06 4.7723309e-06)
(9.3183752e-06 2.2620706e-06 -3.2060051e-06)
(2.3790417e-05 4.4455275e-06 1.1642708e-05)
(1.9556444e-05 2.7038168e-06 1.8946086e-06)
(4.0802763e-06 -3.2810676e-06 -6.4830314e-07)
(9.360026e-06 -3.0094017e-06 -3.0439503e-06)
(8.2625535e-06 1.689595e-06 -2.2014489e-06)
(-1.4313215e-06 -1.5830724e-07 -5.1449944e-07)
(2.0855507e-05 5.0759732e-06 4.1884167e-06)
(8.8894916e-06 4.2837172e-06 -2.6236244e-06)
(8.8411111e-06 2.5814014e-06 -3.6561376e-06)
(2.5919532e-05 1.200599e-06 1.3406977e-05)
(-1.8024018e-06 5.6188013e-08 -9.8297229e-07)
(2.8023816e-05 -1.1932489e-06 1.3809816e-05)
(2.15161e-05 6.1625579e-06 5.4704784e-06)
(2.2860821e-05 -5.0876675e-06 4.2743006e-06)
(1.7729084e-05 -1.7278881e-06 -3.754761e-06)
(1.8100621e-05 3.28672e-06 -2.0377277e-06)
(1.7790006e-05 3.1563766e-06 -3.6188511e-06)
(2.0995749e-05 -2.9005878e-06 -2.230361e-06)
(-1.7102156e-06 1.1300188e-07 -8.0147217e-07)
(5.7268133e-06 2.0350898e-06 -1.3992731e-06)
(1.5701361e-06 1.8123416e-06 -9.3322955e-08)
(2.2109022e-05 -4.569095e-06 8.4397039e-06)
(2.6639209e-05 -2.7759227e-06 4.396432e-06)
(2.0048115e-06 -1.166776e-06 -7.1415595e-07)
(-7.4023436e-07 5.0461121e-07 -5.4299252e-07)
(-9.0057626e-07 3.2363698e-07 -6.1523223e-07)
(2.2934864e-05 4.3394789e-06 7.8257984e-06)
(1.0018903e-06 1.1401305e-06 -5.0737655e-07)
(1.0426141e-05 -3.2675903e-06 -4.1879839e-06)
(9.1989978e-06 -2.7746904e-06 -3.3199229e-06)
(2.4137073e-05 3.5408573e-06 8.5385937e-06)
(1.0666493e-05 1.8653959e-06 -4.5841458e-06)
(1.0399028e-05 3.3859838e-06 -3.0049862e-06)
(-3.5752663e-07 -5.5300783e-07 -5.697469e-07)
(-9.3380745e-07 -5.231076e-07 -3.3692396e-07)
(1.1456587e-07 -8.7115254e-07 -1.4538212e-07)
(1.1652949e-06 -1.3576539e-06 -3.1659974e-07)
(2.9412904e-07 6.5800447e-07 -3.7736194e-07)
(9.196362e-06 -2.219292e-06 -2.8335679e-06)
(1.0011692e-05 2.7543894e-06 -2.5931773e-06)
(1.0562272e-05 -3.9492358e-07 -4.0189474e-06)
(1.0692867e-05 -6.1767602e-07 -4.3950895e-06)
(4.9435394e-06 -3.3717361e-06 -1.4528383e-06)
(1.1261578e-05 2.3184038e-06 -3.7252522e-06)
(1.741017e-07 -5.5519771e-07 -4.3635113e-07)
(-7.0703793e-08 5.4967131e-07 -2.6679586e-07)
(1.0788972e-05 3.4518429e-06 -3.0599527e-06)
(1.118635e-05 -2.6125236e-06 -4.1339831e-06)
(2.3764824e-05 3.3953315e-06 7.6287259e-06)
(1.9813067e-05 3.6381793e-06 3.1699376e-06)
(2.0811879e-05 4.6620644e-06 5.7959466e-06)
(1.0639475e-05 1.0962873e-06 -3.0672608e-06)
(1.6555053e-06 1.4548304e-06 -4.605832e-07)
(5.6766884e-07 1.0787687e-06 -1.4315161e-07)
(1.9456619e-05 3.6625034e-06 3.1889089e-06)
(-2.0892172e-07 -6.7878199e-07 -1.9039069e-07)
(-3.4048045e-07 7.6757944e-07 -3.0787083e-07)
(-5.2916964e-07 6.2472015e-07 -2.371712e-07)
(-3.0892939e-07 -8.2430075e-07 -4.0641828e-07)
(5.2659618e-07 8.2635043e-07 -4.571063e-07)
(2.0130092e-05 -4.9943179e-06 3.757407e-06)
(7.0844175e-07 -8.965413e-07 -4.4618694e-07)
(6.124635e-07 -1.4203579e-06 -1.5825959e-07)
(1.7979694e-06 -1.6542829e-06 -5.7966723e-07)
(1.6063231e-05 2.5880338e-06 -2.6717558e-06)
(2.2506019e-05 2.3982302e-07 -4.3296866e-06)
(1.643074e-07 -8.3756917e-07 -1.291599e-07)
(2.0080293e-05 -5.3664062e-06 4.4940512e-06)
(-1.4036417e-07 -7.3012204e-07 -2.3195228e-07)
(7.6046542e-08 6.1937547e-07 -1.9740927e-07)
(-1.5270148e-08 7.199163e-07 -4.2616032e-07)
(2.1047492e-05 4.972949e-06 7.3596771e-06)
(-1.3564917e-06 -3.481011e-07 -8.0760103e-07)
(2.0412987e-05 -4.0663297e-06 6.0094759e-06)
(1.5556921e-06 1.8557596e-06 -1.4481387e-07)
(2.2361171e-05 -5.7117197e-06 8.0814443e-06)
(-1.4555769e-06 -9.7658927e-08 -1.0098181e-06)
(2.5761247e-06 2.5743351e-06 -4.323959e-07)
(1.154798e-05 -2.3528813e-06 -3.7717903e-06)
(-1.7495411e-06 3.6106491e-08 -1.5488922e-06)
(1.1880979e-05 1.071116e-06 -4.2113132e-06)
(1.0646214e-05 -5.2991173e-07 -4.1967853e-06)
(2.0748362e-06 -9.553583e-07 -9.4851527e-07)
(-1.2083068e-06 -2.7727936e-07 -6.9769017e-07)
(1.220679e-05 2.574956e-06 -4.1949889e-06)
(1.9477254e-05 3.4299183e-06 -5.7440065e-06)
(1.2446043e-05 -2.7601891e-06 -4.2659303e-06)
(-2.1807806e-06 -1.517474e-07 -6.6080498e-07)
(-1.7298745e-06 8.9242534e-08 -1.0430306e-06)
(1.5698911e-05 -3.2521922e-06 -5.0017186e-06)
(-1.9691048e-06 2.1523427e-09 -9.0401867e-07)
(1.8067147e-05 1.7824731e-06 -5.0142884e-06)
(1.0876883e-05 3.7303014e-06 -3.2412734e-06)
(-1.1119955e-06 5.7753381e-07 -5.7242407e-07)
(-1.6311646e-06 -2.2253183e-07 -6.8706609e-07)
(1.5249922e-05 -1.6570666e-06 -3.6004133e-06)
(1.918002e-05 4.3831115e-07 -1.3582802e-06)
(-1.5623709e-06 -7.7583696e-08 -1.1574216e-06)
(-1.239676e-06 3.3752277e-07 -8.6436226e-07)
(-2.0529442e-06 -5.2388788e-08 -8.3237071e-07)
(1.0457927e-05 -1.8636384e-06 -3.8143114e-06)
(1.8971691e-05 -3.2062071e-06 -3.6395097e-07)
(-1.4527118e-06 -3.2203203e-07 -6.9676336e-07)
(-1.6931079e-06 -1.4294927e-07 -8.7530065e-07)
(-2.218141e-06 -2.3962373e-09 -9.8751802e-07)
(1.3213144e-05 1.3423052e-06 -5.3185488e-06)
(-1.7900079e-06 6.4066816e-08 -1.3351834e-06)
(-1.6965154e-06 -5.367903e-08 -1.212386e-06)
(-1.3964428e-06 -2.3406672e-07 -9.8297879e-07)
(-1.8113984e-06 -1.0210864e-07 -1.1385895e-06)
(-1.6205144e-06 -2.9138967e-07 -7.2433166e-07)
(1.3247164e-05 -9.1294503e-07 -4.9642335e-06)
(-2.0162008e-06 -2.9440563e-08 -8.3118136e-07)
(1.256146e-05 -2.8960498e-06 -4.0038829e-06)
(-1.1963394e-06 -2.3231737e-07 -1.1121413e-06)
(-1.8142821e-06 -1.0008606e-07 -9.0454069e-07)
(-1.9211299e-06 -1.0519591e-07 -1.1326989e-06)
(9.4410255e-07 1.184617e-06 -6.4659645e-07)
(1.6037183e-06 1.5150659e-06 -5.7021053e-07)
(-1.820594e-06 6.3012735e-08 -1.5233628e-06)
(1.0425728e-05 -6.5855144e-07 -3.4605596e-06)
(-3.4610835e-07 6.592956e-07 -5.7094872e-07)
(1.2072835e-05 2.8338005e-06 -4.3905666e-06)
(1.83329e-05 -1.1509675e-06 -6.1566012e-06)
(3.3889502e-06 2.2076292e-06 -8.567987e-07)
(-2.000825e-06 6.9894882e-08 -9.7283525e-07)
(2.8514208e-06 -1.8496595e-06 -1.1900523e-06)
(1.1947523e-05 -1.8602932e-07 -4.4281625e-06)
(1.1150819e-05 -9.8475878e-07 -4.5267741e-06)
(1.039396e-05 1.6549557e-06 -3.3233759e-06)
(1.302203e-06 -1.2658082e-06 -6.4439398e-07)
(1.3834358e-06 -1.4994388e-06 -5.2541523e-07)
(1.3269781e-05 -1.0580185e-06 -5.5826058e-06)
(1.4515356e-05 3.0818652e-07 -4.8561978e-06)
(4.570368e-07 1.1713412e-06 -2.1335037e-07)
(4.2556488e-07 8.3681362e-07 -3.5192778e-07)
(-8.2712038e-08 8.5232586e-07 -2.4199467e-07)
(-1.3667995e-06 3.9014748e-08 -1.0747346e-06)
(1.5080448e-05 -1.960314e-06 -4.3784209e-06)
(-1.5906262e-06 -3.5449022e-07 -8.3051608e-07)
(-1.5797508e-06 -9.0527615e-08 -1.5195797e-06)
(1.2709901e-05 -1.1076809e-06 -4.9257118e-06)
(2.0685037e-05 4.0513628e-06 4.3909058e-06)
(1.5844039e-05 1.6097068e-07 -5.3193325e-06)
(1.629663e-05 -3.1712205e-06 -4.9572297e-06)
(1.3687181e-05 -3.0482762e-06 -3.3535653e-06)
(1.3285307e-05 -1.8720152e-07 -5.7717968e-06)
(1.4408006e-05 -5.0281396e-08 -4.3531486e-06)
(-1.8188561e-06 -7.9954277e-08 -1.3345029e-06)
(1.3648056e-05 -1.0497837e-06 -4.1971319e-06)
(-1.774955e-06 1.2279526e-07 -1.4314699e-06)
(1.5513603e-05 1.205166e-06 -5.6282051e-06)
(-8.3131166e-07 5.7689474e-07 -3.9602314e-07)
(-1.7595952e-06 -1.683903e-07 -9.1100157e-07)
(4.3540288e-07 1.1940383e-06 -1.8128016e-07)
(-1.9470319e-06 -1.3754516e-07 -9.4451146e-07)
(-1.2361263e-06 4.1930684e-07 -5.5214766e-07)
(1.6458454e-05 2.4312938e-06 -4.3973971e-06)
(1.2990415e-05 -1.5368009e-06 -5.3708765e-06)
(1.3861095e-05 7.9251918e-07 -4.3069428e-06)
(2.8205226e-06 1.5801101e-06 -8.8487811e-07)
(1.4862967e-05 -1.262568e-06 -3.8153503e-06)
(-1.5498371e-06 1.3660174e-07 -1.3107444e-06)
(1.477278e-06 1.9092628e-06 -2.2672024e-07)
(-5.924184e-07 -5.4051494e-07 -7.0616849e-07)
(1.5187343e-05 2.1121e-06 -5.0789764e-06)
(-2.5121203e-06 3.7807732e-08 -8.8457769e-07)
(3.1038135e-07 8.7412164e-07 -5.5867537e-07)
(2.2859876e-05 2.8240396e-06 4.4667416e-06)
(1.8650886e-07 8.239775e-07 -4.9033036e-07)
(-1.9721096e-06 1.8584114e-08 -8.9151072e-07)
(-3.4244605e-07 8.9608673e-07 -2.1549072e-07)
(-1.8847806e-06 1.1888335e-07 -1.1303955e-06)
(-1.4984709e-06 -1.3367036e-07 -1.0205065e-06)
(8.1867709e-06 -2.0830055e-06 -2.1167576e-06)
(-1.9726189e-07 -8.0504699e-07 -5.9916573e-07)
(2.2898109e-05 -3.3391941e-06 9.0001064e-06)
(7.4041204e-06 6.9959296e-07 -2.284699e-06)
(2.4615368e-05 -2.6790526e-06 1.3805095e-05)
(2.3243063e-05 -4.8752717e-06 1.186477e-05)
(2.5027773e-05 2.4262315e-06 1.4343052e-05)
(2.2385697e-05 2.5612548e-06 2.9560687e-06)
(5.5954582e-06 3.7643812e-06 -8.3985112e-07)
(8.2436224e-07 8.8714343e-07 -3.6723955e-07)
(1.8630009e-06 1.9932333e-06 -5.2243062e-07)
(4.0312889e-06 -2.1075986e-06 -1.2140185e-06)
(6.1259654e-07 -8.9613655e-07 -4.0652132e-07)
(1.8301016e-05 8.5242139e-07 -2.641829e-06)
(3.7521646e-07 -7.1379895e-07 -6.1251309e-07)
(-1.9596225e-06 9.8293637e-08 -1.0680315e-06)
(-1.1300922e-06 -4.2059227e-07 -4.496497e-07)
(2.3482283e-05 -1.3939898e-06 -3.7502784e-06)
(1.6032251e-06 1.1337136e-06 -6.457557e-07)
(4.7779067e-07 -1.2588042e-06 -3.385255e-07)
(6.4726916e-07 1.3725255e-06 -3.0469289e-07)
(-1.8681409e-06 1.6788679e-07 -1.0962568e-06)
(7.239712e-07 1.1207794e-06 -4.5618061e-07)
(8.9829975e-06 -3.1398099e-06 -2.4135704e-06)
(1.0879303e-06 1.3028903e-06 -5.8177118e-07)
(2.9056133e-08 1.1306991e-06 -2.9513192e-07)
(-2.1947373e-06 2.0311844e-07 -6.8660408e-07)
(-1.7443797e-06 1.6877876e-07 -1.1766138e-06)
(1.3865533e-05 -1.8959959e-06 -6.0232304e-06)
(2.7893397e-06 1.7609402e-06 -6.3862213e-07)
(9.336358e-07 1.6414041e-06 -1.2347854e-07)
(8.4899323e-06 2.8717308e-06 -1.7491951e-06)
(-2.3894006e-07 8.8802525e-07 -3.6963688e-07)
(1.4384064e-05 1.334351e-06 -6.1381148e-06)
(-3.2380721e-07 6.9780919e-07 -5.7653702e-07)
(-7.8939789e-07 5.6169159e-07 -4.1367149e-07)
(-2.0739765e-06 -1.7918589e-10 -9.9541203e-07)
(1.5269651e-05 -3.0810191e-06 -5.8499234e-06)
(-9.7077803e-07 5.2127002e-07 -6.4673942e-07)
(2.3222491e-06 -1.8031396e-06 -4.0498776e-07)
(-1.1202627e-06 2.8330564e-07 -6.1563453e-07)
(2.056964e-05 2.8347385e-07 6.4581351e-08)
(1.3169468e-05 2.0294093e-06 -4.9360967e-06)
(4.3226464e-07 9.1931457e-07 -5.7608518e-07)
(1.2925082e-06 9.3068941e-07 -6.4677745e-07)
(-1.4695503e-06 1.6038792e-07 -1.0745202e-06)
(-1.7639136e-06 2.163485e-07 -7.1585766e-07)
(2.1594336e-05 3.9934854e-06 9.2791765e-06)
(1.9576925e-08 1.0450044e-06 -4.1333716e-07)
(6.124374e-07 -1.3597117e-06 1.2566218e-07)
(-1.8400387e-06 -2.5979321e-08 -1.2456783e-06)
(2.0036588e-06 1.3702635e-06 -7.2485258e-07)
(-1.9107616e-06 1.8100763e-07 -1.2415188e-06)
(2.3525614e-05 -4.9969751e-06 5.6748409e-06)
(-1.7320433e-06 -1.8950042e-07 -8.5639689e-07)
(-1.284627e-06 -4.0203154e-07 -5.4456158e-07)
(-1.9651385e-06 1.2232632e-07 -7.3039478e-07)
(2.403671e-05 -1.5275008e-06 1.4727395e-05)
(-1.5089079e-06 3.6382377e-07 -6.6707063e-07)
(2.6102909e-05 1.2841379e-06 1.3696823e-05)
(9.7037972e-07 1.2953523e-06 -5.249387e-07)
(-1.8068062e-06 9.7945214e-08 -1.1582457e-06)
(-1.5602909e-06 5.9409432e-08 -1.3126117e-06)
(1.6973105e-06 -1.4005523e-06 -6.481638e-07)
(-1.9602546e-06 2.3224018e-07 -7.474634e-07)
(1.9305348e-06 1.1197131e-06 -9.4421807e-07)
(-1.8367794e-06 2.8871829e-07 -6.5868554e-07)
(2.0154385e-06 2.0105444e-06 -7.8667807e-07)
(2.0718301e-05 4.22271e-06 8.5620856e-06)
(2.3025987e-06 2.4931576e-06 -2.5885771e-07)
(-1.1626549e-06 -4.5854253e-07 -7.1507464e-07)
(-1.330558e-06 -3.1978669e-07 -8.1718506e-07)
(-1.9672307e-06 -2.465319e-08 -1.00708e-06)
(-1.5146081e-06 1.9288831e-07 -1.0667869e-06)
(-1.9873478e-06 6.8920429e-08 -1.3424948e-06)
(-1.9578311e-06 3.4439832e-07 -5.755812e-07)
(-7.587828e-07 -7.7077299e-07 -3.5872715e-07)
(-2.2957432e-06 1.9642693e-08 -6.7248287e-07)
(8.5883727e-06 -8.5038773e-07 -2.6022036e-06)
(1.6713545e-05 -2.7378216e-06 -3.8191357e-06)
(1.8973493e-05 3.8471708e-07 -3.7656993e-06)
(-1.5210518e-06 6.8486014e-08 -1.0068433e-06)
(1.5319164e-05 -1.2502263e-06 -6.0828017e-06)
(1.6204812e-05 1.850033e-06 -6.9397669e-06)
(3.4830966e-06 2.5983188e-06 -9.4008411e-07)
(-1.2147576e-06 -4.195935e-07 -8.5386309e-07)
(5.9136462e-06 -4.1606647e-06 -1.2266244e-06)
(2.1901597e-07 -1.0936963e-06 -1.548897e-07)
(8.6981662e-06 1.5517928e-06 -3.4265174e-06)
(-2.0627463e-06 -1.4552695e-07 -9.7976141e-07)
(2.5202048e-05 -1.9290359e-06 6.0533887e-06)
(-1.7878333e-06 1.0161076e-07 -8.3720249e-07)
(3.98807e-06 1.6162184e-06 -1.071231e-06)
(7.0041881e-06 2.2036202e-06 -1.8882764e-06)
(-1.5717858e-06 -8.9443576e-08 -9.1230454e-07)
(-4.3827917e-07 8.9179031e-07 -5.7157423e-07)
(-1.3903473e-06 2.4870069e-07 -8.2156022e-07)
(3.5064389e-07 -1.0034508e-06 -5.331507e-07)
(5.2329069e-06 1.7948724e-06 -1.3764327e-06)
(5.2983232e-06 2.284232e-06 -1.8906973e-06)
(-1.8255622e-06 4.2236273e-08 -1.1351331e-06)
(-2.9516462e-07 -1.0802717e-06 -2.6863674e-07)
(2.0017432e-05 -1.7200571e-06 -5.4042142e-06)
(-9.2528323e-07 4.6350574e-07 -5.305355e-07)
(2.1336209e-05 -4.5930292e-06 4.4752521e-06)
(-1.1715574e-06 3.7287832e-07 -8.8834397e-07)
(-1.4711808e-06 -3.1792292e-07 -7.1078877e-07)
(1.1581832e-07 8.9717225e-07 -5.4342862e-07)
(-1.6233e-06 6.0592122e-08 -9.5257016e-07)
(1.9482634e-05 -5.4382877e-06 6.1187757e-06)
(2.2682288e-05 1.0906873e-06 -6.154083e-06)
(-1.1944665e-06 3.5745662e-07 -6.9700951e-07)
(-1.2477421e-06 -2.5832512e-07 -8.439052e-07)
(-1.4115246e-06 2.3878219e-07 -7.1775291e-07)
(-1.8250897e-06 -7.1670962e-08 -1.1093167e-06)
(-1.8034406e-06 -2.5980872e-08 -1.083498e-06)
(-1.8666483e-06 -7.0314358e-08 -1.0047901e-06)
(2.5992154e-05 2.2937335e-06 1.4605573e-05)
(-1.5439405e-06 1.9810594e-07 -8.5647928e-07)
(2.697898e-05 -1.9354146e-06 1.3314146e-05)
(-1.8967034e-06 -1.141731e-07 -9.522402e-07)
(1.1087381e-05 -1.1079744e-06 -3.8377606e-06)
(-1.6558527e-06 1.1508308e-07 -1.0245548e-06)
(-1.2955612e-06 2.2588623e-07 -9.1091536e-07)
(2.4246815e-05 3.3855713e-06 1.309395e-05)
(2.7963599e-06 2.2362683e-06 -6.6035952e-07)
(1.296436e-05 -1.2957887e-06 -3.2469588e-06)
(1.6290694e-06 -1.8418422e-06 -3.5968357e-07)
(-1.819158e-06 1.011473e-07 -1.0586091e-06)
(-1.4958251e-06 1.2340828e-07 -8.1803168e-07)
(-1.4409208e-06 2.7550157e-08 -1.6240774e-06)
(7.0390163e-06 -3.4924517e-06 -1.9046119e-06)
(3.7921799e-06 1.3234791e-06 -1.3873091e-06)
(-1.9482204e-06 -9.1669078e-09 -8.6790744e-07)
(9.7030698e-07 -1.5039898e-06 -5.0867906e-07)
(-1.9863649e-06 -9.776935e-08 -1.1366797e-06)
(-6.8686051e-08 9.7040343e-07 -5.2865627e-07)
(1.1058152e-05 1.7903399e-06 -3.7302972e-06)
(-7.2974901e-07 -5.5102128e-07 -7.4828731e-07)
(2.5037231e-06 -1.7946663e-06 -7.8253457e-07)
(-1.0299189e-06 3.8084899e-07 -8.0294777e-07)
(-4.9267731e-07 6.3001441e-07 -5.9747405e-07)
(1.2948886e-05 3.1960354e-06 -4.4652486e-06)
(4.2801384e-06 2.7080887e-06 -5.6837248e-07)
(2.3672721e-05 -2.4869315e-06 1.4507944e-05)
(-1.7176679e-06 -6.030619e-08 -8.5676889e-07)
(-1.8645406e-06 -1.4746114e-07 -7.3834491e-07)
(1.1568177e-06 -1.5057547e-06 -1.510673e-07)
(1.7286032e-05 1.8832342e-06 -4.8387471e-06)
(-9.9210568e-07 -3.0620368e-07 -7.8141246e-07)
(1.7279319e-05 2.9194271e-06 2.6293342e-06)
(1.8697775e-05 7.330831e-07 -2.9438869e-06)
(1.6159738e-05 -9.5953223e-07 -4.3758158e-06)
(-1.4839749e-06 -2.0960388e-07 -7.2234394e-07)
(-1.2856631e-06 -1.7424662e-07 -8.968318e-07)
(1.6416333e-05 1.201102e-07 -6.4914879e-06)
(-1.4511211e-06 -7.379078e-09 -1.4076736e-06)
(1.6272443e-05 9.7499917e-07 -6.3907637e-06)
(1.9860511e-05 -2.3842095e-06 -3.3403127e-06)
(2.0181478e-05 -4.0759277e-06 -6.1038191e-06)
(-1.187511e-06 -2.420696e-07 -9.7336507e-07)
(-1.4616829e-06 -4.3318281e-07 -4.8156564e-07)
(-1.5968924e-06 -4.1492874e-07 -5.9528419e-07)
(-1.0292558e-06 -4.8231283e-07 -8.3357465e-07)
(1.6263534e-05 1.8290968e-06 -3.5668933e-06)
(1.9571389e-05 -2.1639052e-06 3.0552694e-07)
(1.9782635e-05 -3.9424163e-06 1.2044358e-06)
(2.250011e-05 6.0313551e-06 2.5364082e-06)
(1.003553e-06 -8.8450442e-07 -5.3482985e-07)
(2.2394284e-05 -7.2927284e-07 1.1162215e-06)
(1.0950983e-05 1.4125795e-07 -4.5432657e-06)
(6.2203502e-07 -1.3320536e-06 -4.0267636e-08)
(1.1036213e-05 -2.2891814e-07 -4.5605009e-06)
(1.5176649e-06 -1.2177624e-06 -5.6621847e-07)
(6.1154899e-07 -1.2580216e-06 -4.964519e-07)
(1.5121788e-06 -2.1468943e-06 -8.4367395e-08)
(-6.7528797e-08 -1.023308e-06 -3.4087625e-07)
(4.7644962e-07 -1.4926089e-06 -3.8212704e-07)
(1.199573e-06 -1.1427947e-06 -9.8374499e-07)
(-2.4685414e-07 -1.0549487e-06 -5.2432309e-07)
(-3.731441e-07 -7.1976021e-07 -6.3848473e-07)
(5.2713336e-07 -9.3780559e-07 -7.5977497e-07)
(1.7455619e-06 -1.803483e-06 -6.1911293e-07)
(-9.3414685e-07 -4.3456378e-07 -6.7720389e-07)
(-8.3589583e-07 -6.8239713e-07 -4.2800702e-07)
(9.07611e-07 -1.464426e-06 -4.7983626e-07)
(1.2556446e-06 -1.6007101e-06 -5.6258854e-07)
(2.2424465e-06 -1.3762637e-06 -1.1532863e-06)
(2.1141937e-06 -1.5150237e-06 -9.765143e-07)
(2.1319343e-05 3.6383602e-06 1.1403474e-05)
(9.0663843e-06 -3.1613984e-06 -2.982367e-06)
(-4.9151676e-07 -6.7373727e-07 -8.9972567e-07)
(1.0224851e-05 -2.8909412e-06 -2.6106021e-06)
(3.3125168e-06 -2.1089244e-06 -8.4240469e-07)
(2.4369857e-05 -3.6066856e-06 1.1164008e-05)
(-8.5726254e-07 -5.3887214e-07 -5.9558439e-07)
(1.6984839e-05 3.7590084e-06 3.1064308e-07)
(3.1687847e-06 -2.7031653e-06 -5.9115537e-07)
(9.2598895e-06 -1.1528156e-06 -2.9912279e-06)
(1.8102164e-05 3.6980662e-06 -3.407327e-06)
(8.4451195e-06 2.241451e-06 -2.589502e-06)
(-8.7492467e-07 -5.5832827e-07 -8.2067269e-07)
(4.8067055e-06 -1.8985317e-06 -1.5992441e-06)
(-6.6157578e-07 -6.2832844e-07 -6.7032867e-07)
(4.6120371e-06 -3.0864544e-06 -1.2195013e-06)
(-1.0044718e-07 -9.5921242e-07 -7.0437968e-07)
(1.8121265e-05 -2.2340394e-06 -3.9849142e-06)
(1.0526973e-05 3.7217568e-06 -2.1605626e-06)
(4.9155119e-07 -1.2393507e-06 -6.7531761e-07)
(1.2930528e-05 -2.7439596e-06 -2.3814774e-06)
(8.8138193e-06 1.1938171e-06 -2.3669554e-06)
(-7.0485481e-07 -6.7815677e-07 -9.9996073e-07)
(-5.6688361e-07 -8.343391e-07 -4.8213795e-07)
(-6.8180708e-07 -5.2567327e-07 -7.1203515e-07)
(-7.3920886e-07 -8.1686956e-07 -5.0754746e-07)
(1.7121282e-05 1.8761936e-06 -3.8220887e-06)
(1.2499879e-06 -9.4928853e-07 -1.1315232e-06)
(1.4370118e-05 5.6223488e-07 -3.8611459e-06)
(1.4982228e-05 -5.7431851e-07 -3.7632978e-06)
(1.3367154e-05 6.068973e-07 -3.6645876e-06)
(-1.9148491e-07 -1.2920138e-06 -3.3673934e-07)
(-7.6589987e-07 -6.2166912e-07 -8.636748e-07)
(-1.399033e-07 -7.637296e-07 -8.2875857e-07)
(2.7797007e-06 -2.3684636e-06 -6.8497411e-07)
(2.2367052e-05 -3.1563326e-06 2.4281307e-06)
(-8.1218736e-07 -7.9004533e-07 -4.7788995e-07)
(2.1174865e-06 2.1597311e-06 -3.6934328e-07)
(-1.1999865e-07 -8.4142289e-07 -6.9142691e-07)
(3.442038e-06 -1.6685782e-06 -7.7665517e-07)
(1.0570136e-05 -2.2660738e-07 -4.3542166e-06)
(1.8549066e-05 2.3853711e-07 -5.0374624e-06)
(-2.4610841e-07 -5.9666438e-07 -8.0982548e-07)
(4.05933e-06 -1.7676743e-06 -1.222069e-06)
(6.2314948e-06 2.6570388e-06 -1.1993106e-06)
(-6.8273574e-07 -5.380756e-07 -5.6234751e-07)
(1.06685e-05 1.8950644e-07 -4.6421417e-06)
(1.7357074e-05 -2.3992792e-06 -4.3390993e-06)
(1.4930716e-05 -1.9152515e-06 -3.3279706e-06)
(7.0038981e-07 -1.645362e-06 -3.7466401e-07)
(-1.8406899e-07 -9.9337774e-07 -4.1390445e-07)
(6.0693416e-08 -1.1599788e-06 -5.8015364e-07)
(1.7805642e-05 1.7806185e-06 -3.1320916e-06)
(1.6203521e-07 -1.0201526e-06 -5.8232575e-07)
(1.970402e-07 -1.1913826e-06 -3.4001703e-07)
(8.4405348e-06 4.1500049e-06 -1.4904982e-06)
(2.021507e-05 -1.8183415e-07 -3.6384607e-06)
(8.4330365e-07 -1.1233858e-06 -7.0858283e-07)
(-4.5057483e-07 -9.2933888e-07 -2.6718137e-07)
(-1.1654359e-06 2.869788e-07 -7.7282872e-07)
(1.814415e-07 -1.4470007e-06 -4.2268559e-07)
(1.0461114e-07 -9.8447798e-07 -5.2513948e-07)
(7.4417531e-07 -9.5383222e-07 -4.2870107e-07)
(7.0144208e-07 -1.9831331e-06 -4.2933379e-07)
(3.1674626e-06 2.0353227e-06 -4.8382903e-07)
(1.996097e-05 4.5867772e-06 8.0424183e-06)
(2.0783982e-05 -3.9883264e-06 6.1900305e-06)
(-7.6750713e-07 -7.8200054e-07 -2.9446587e-07)
(4.4467612e-06 3.6366381e-06 -4.8933363e-07)
(6.7756657e-07 -1.0934645e-06 -5.1466268e-07)
(-1.3926503e-07 -1.0686824e-06 -4.2140335e-07)
(5.3147682e-08 -1.436367e-06 -3.3670727e-07)
(-1.0235386e-07 -7.4618428e-07 -6.3140111e-07)
(5.4604381e-07 -1.0756961e-06 -6.2521095e-07)
(1.9012918e-05 -3.2808427e-06 -1.6013641e-07)
(1.7957101e-07 -1.046595e-06 -4.1484026e-07)
(8.3318664e-06 -4.6816961e-06 -1.5324132e-06)
(1.9987076e-05 2.0285953e-06 -8.1281265e-07)
(1.9452321e-06 -1.8480491e-06 -6.1556007e-07)
(2.3588599e-05 3.9808842e-06 6.3847653e-06)
(-9.7890219e-07 -4.1356416e-07 -7.1223984e-07)
(-1.6808387e-06 1.4044402e-07 -7.7371404e-07)
(-1.1063392e-06 -4.0982024e-07 -6.5720729e-07)
(-1.5812991e-06 -1.1291061e-07 -1.1605305e-06)
(-1.2377182e-06 2.3567211e-07 -7.838482e-07)
(1.2762014e-06 -1.7240368e-06 -4.0615254e-07)
(7.898928e-06 1.9669504e-06 -1.648958e-06)
(3.690262e-07 -9.2797089e-07 -7.8670208e-07)
(2.5148897e-06 -2.0167127e-06 -5.7466663e-07)
(-1.748719e-06 -8.666538e-08 -7.37589e-07)