/*--------------------------------*- C++ -*----------------------------------*\
  =========                 |
  \\      /  F ield         | OpenFOAM: The Open Source CFD Toolbox
   \\    /   O peration     | Website:  https://openfoam.org
    \\  /    A nd           | Version:  11
     \\/     M anipulation  |
\*---------------------------------------------------------------------------*/
FoamFile
{
    format      ascii;
    class       volVectorField;
    location    "10000";
    object      wallShearStress;
}
// * * * * * * * * * * * * * * * * * * * * * * * * * * * * * * * * * * * * * //

dimensions      [0 2 -2 0 0 0 0];

internalField   uniform (0 0 0);

boundaryField
{
    wall-fluid_domain
    {
        type            calculated;
        value           nonuniform List<vector> 
50462
(
(0.00014921624 -1.5528443e-05 9.6413373e-05)
(0.00017609127 -2.3104368e-05 0.00012598677)
(0.00017468853 -1.5580236e-05 8.7967195e-05)
(0.00015962666 -1.4331711e-05 8.177843e-05)
(0.0001785436 3.694442e-05 9.2415324e-05)
(0.00017851658 -8.4140435e-06 0.00017236256)
(0.00017225294 -1.3345772e-05 0.00016464333)
(0.0001855361 -4.4606714e-06 0.00018000226)
(0.00019067508 -1.5068816e-05 0.00010192477)
(0.00017418978 -1.0859128e-05 0.00016541385)
(0.00020951881 7.9924523e-06 0.00020109998)
(0.00016329212 -9.8414174e-06 8.5085176e-05)
(0.00017034708 3.8609172e-06 0.00017267212)
(0.00018896984 1.1615378e-05 0.00018191577)
(0.00018346674 1.1062162e-05 0.00018015746)
(0.00020369227 6.9907529e-06 0.00019725645)
(0.00016600391 -8.5689225e-06 8.600555e-05)
(0.00016064862 1.4910089e-06 0.00016617447)
(0.00017654896 -3.2796305e-06 0.00017906464)
(0.00017926484 -3.8150407e-06 9.0281145e-05)
(0.00019417124 1.1719964e-05 0.00018586668)
(0.00011918668 -9.4271876e-06 6.1730797e-05)
(0.00015745204 3.11302e-06 0.00016153483)
(0.00015353812 -8.607809e-07 7.8548058e-05)
(0.00019536064 7.8217721e-06 0.00019507241)
(0.00014651054 -3.6299316e-06 7.5964628e-05)
(0.00018949093 1.1269025e-05 0.00018269044)
(0.00016205067 -1.5236653e-05 0.00015459819)
(0.00019033166 1.7704235e-05 0.0001837054)
(0.00015465172 7.2329906e-07 0.00015762055)
(0.00015022652 -8.2964421e-06 8.2952697e-05)
(0.00019709378 9.5653056e-06 0.00019884419)
(0.00021012681 7.2202702e-06 0.00020447906)
(0.00014871796 -1.0787175e-06 7.7963897e-05)
(0.00016980221 9.8099003e-06 0.00016509343)
(0.00016744033 3.1456391e-06 0.00016375837)
(0.00020371657 6.7498138e-06 0.00020242529)
(0.0001646433 2.8415568e-06 0.00016225103)
(0.00021989027 1.3193884e-05 0.00020909147)
(0.00019771555 9.7157967e-06 0.00019834889)
(0.00017153994 -1.0885805e-05 8.3583741e-05)
(0.00014674989 7.8839983e-07 7.4100554e-05)
(0.00014834339 -4.0421596e-06 7.7020667e-05)
(0.00021459464 1.3748179e-05 0.00020712588)
(0.00016643514 1.3193583e-05 0.00016381431)
(0.00020760257 1.5369046e-05 0.0002031271)
(0.00017798812 6.9509132e-06 0.00018176815)
(0.00018544478 7.7609435e-06 0.00018023504)
(0.0001909952 1.4866496e-05 0.00018515033)
(0.0001707495 1.1520762e-05 0.00016002425)
(0.00018250623 -2.5299895e-05 0.00012923064)
(0.00015363733 -8.2528259e-06 7.3297712e-05)
(0.00017763041 9.6980215e-06 0.00017655139)
(0.00014168566 -2.5088916e-06 7.2960893e-05)
(0.00019773538 -2.4909061e-05 0.00017974698)
(0.00013968919 1.5763716e-06 5.4074268e-05)
(0.00019072535 6.7111432e-07 7.2667307e-05)
(0.0002080256 -2.6120447e-05 0.00018219311)
(0.0001958902 7.9062147e-07 7.4380649e-05)
(0.00024619513 -2.0510062e-05 0.00012300623)
(0.00018189697 -1.8884402e-05 9.830662e-05)
(0.00012586079 -7.3090327e-06 6.4301412e-05)
(0.00013558729 -6.1757297e-06 7.8378691e-05)
(0.00016145762 -1.299382e-05 9.9986071e-05)
(0.00017250677 -9.7517137e-06 8.8653625e-05)
(0.00025936239 -1.1892565e-05 0.00011976803)
(0.00017445838 -1.5369265e-05 8.6894146e-05)
(0.00014430726 1.6856907e-06 7.0047159e-05)
(0.00014369223 -2.7356227e-06 6.8942446e-05)
(0.00017055302 3.5515148e-06 0.00017453064)
(0.00020307425 -3.0572192e-05 0.00017338968)
(0.00020161296 -2.75279e-05 0.00017220776)
(0.00018489806 -2.343584e-05 0.00014829811)
(0.00018017411 -2.6834202e-05 0.00014525271)
(0.00020262633 5.0799965e-06 0.00019007328)
(0.00015832367 7.1257431e-06 0.00015760612)
(0.00017709824 -2.2736927e-05 0.00012127227)
(0.00017219992 -2.5870745e-05 0.00013007444)
(0.00015745057 -1.3784592e-05 0.00010633719)
(0.00013701151 -1.0263102e-05 8.2417575e-05)
(0.00018929806 4.6732358e-06 0.00019276418)
(0.00014771086 -1.6792433e-05 9.8639696e-05)
(0.00016140899 -6.2366629e-06 0.00015600576)
(0.00017853151 -2.1720446e-06 6.8601125e-05)
(0.00019156868 5.4370595e-06 0.00018392449)
(0.0001570483 -7.2001635e-06 0.00015452402)
(0.00018077888 -4.0762167e-06 0.00017812697)
(0.00015955831 -1.4523407e-06 0.00015975404)
(0.00012729149 -4.6270478e-06 0.00013019144)
(0.00015293648 -1.6262255e-06 0.00015751554)
(0.00016879594 1.3796933e-06 0.00016481489)
(0.00015898048 2.3434915e-05 6.57948e-05)
(0.00014986483 1.7740242e-05 5.4520758e-05)
(0.00015013792 4.5074572e-07 0.00015310955)
(0.00016245491 3.8860724e-06 0.0001659337)
(0.00016147528 -2.0626821e-06 0.00015900633)
(0.00013320089 2.4870535e-06 0.00013395008)
(0.0001715523 5.1033021e-06 0.00016821517)
(0.00015196157 2.9003276e-06 0.00015039471)
(0.00017684855 6.2538352e-06 0.000170373)
(0.0001639823 5.1485537e-06 0.00016851146)
(0.00016781922 1.9343874e-05 6.4835047e-05)
(0.00015980614 2.7960178e-05 7.0645174e-05)
(0.0001809246 2.9260265e-05 8.432088e-05)
(0.00014897914 -2.2168044e-05 0.00010763945)
(0.00015698578 -1.7981147e-05 0.00010131599)
(0.00018515798 3.1734001e-05 8.6091354e-05)
(0.00014309114 -2.1324399e-06 7.7121365e-05)
(0.00019161588 2.3939368e-05 7.8199538e-05)
(0.00017013264 2.0723929e-05 6.4929888e-05)
(0.0001719476 1.9320188e-05 6.8010911e-05)
(0.00018904709 2.7896567e-05 8.0967222e-05)
(0.00014958426 -1.7159751e-05 0.00010394205)
(0.00017546851 -2.094269e-05 0.00016546187)
(0.00012836052 -1.9784177e-05 9.148921e-05)
(0.00016172049 -1.373886e-05 0.00010612908)
(0.0001299892 -7.4296505e-06 7.4270966e-05)
(0.00019871659 -2.7656652e-05 0.0001718784)
(0.00017232327 -2.4737364e-05 0.00014760559)
(0.00016882358 -2.3714332e-05 0.00014693413)
(0.00017220055 -2.2908114e-05 0.00014285202)
(0.00017963248 -2.2289301e-05 0.0001613314)
(0.00017885834 -2.1605948e-05 0.00016338699)
(0.00014747519 -8.7549793e-06 8.8164124e-05)
(0.00019272568 -2.5031036e-05 0.00016588844)
(0.00015555799 -2.1382463e-05 0.00012369681)
(0.00017287272 -2.1686006e-05 0.00015029923)
(0.00019706873 -1.7298802e-05 0.00017879372)
(0.00018123465 -1.8899001e-05 0.00015434666)
(0.00017600478 -2.0481044e-05 0.00014133553)
(0.00018846762 -2.1014951e-05 0.00016261298)
(0.00018903854 -2.7397442e-05 0.00016264392)
(0.00015591895 -2.2080425e-05 0.00012397705)
(0.00018054464 -2.5949759e-05 0.00016300631)
(0.00015276559 -2.1151964e-05 0.0001148701)
(0.00017042308 -1.1320307e-05 0.00016399489)
(0.00018153435 -8.5546048e-06 0.00017287438)
(0.00017052474 -2.2050999e-05 0.00014023195)
(0.0001540788 -2.0857285e-05 0.00011306742)
(0.00014783968 -1.9689876e-05 0.00011399329)
(0.00016090431 -1.5079228e-05 0.00011209982)
(0.00014676824 -2.1689083e-05 0.00011773405)
(0.00015039897 -2.4914401e-05 0.00011472163)
(0.00014006773 -1.3672439e-05 9.1222522e-05)
(0.0001895547 -1.9102126e-05 0.0001769023)
(0.00014338782 -1.3675283e-05 9.2457432e-05)
(0.00026935072 -3.2818788e-05 0.00020195307)
(0.00015008297 -1.8196035e-05 0.00010955296)
(0.00016102974 -3.6864031e-06 0.00015224721)
(0.00016421886 -2.4848076e-05 0.00011987031)
(0.00016397162 -1.5475699e-05 0.00011507608)
(0.00018942071 -2.017588e-05 0.00015684696)
(0.00015677337 -1.8536136e-05 0.00011423573)
(0.00015830247 -1.2866675e-06 0.0001572212)
(0.00014860427 -1.7944743e-05 0.00011087266)
(0.00016968689 -2.0301882e-05 0.0001521984)
(0.00013746608 -1.6774543e-05 9.7763079e-05)
(0.00017956321 -2.363271e-05 0.00015273275)
(0.00017039537 -1.6911497e-05 0.00011595347)
(0.00025341124 -4.3330124e-05 0.00020011044)
(0.00014084642 -1.8218671e-05 0.00010347327)
(0.00016236532 -1.225759e-05 0.00010904885)
(0.00013601258 -2.0891294e-05 0.0001121415)
(0.00016348991 -9.1723014e-06 0.0001092228)
(0.00014597684 -1.9423169e-05 0.00011217976)
(0.00019170005 -1.7887014e-05 0.00017692466)
(0.0001761917 -2.2268959e-05 0.00016191978)
(0.00014178715 -9.8089454e-06 8.3219755e-05)
(0.00015845605 -1.5335286e-05 0.00011116667)
(0.0001496729 -1.7516518e-05 0.00010763003)
(0.00025118999 -3.4726293e-05 0.00020334303)
(0.00017829409 -2.2051166e-05 0.00015616415)
(0.00015291364 -2.1048752e-05 0.00011521546)
(0.00011971999 -1.7115883e-05 9.3853751e-05)
(0.00016853974 -1.8633722e-05 0.00014840419)
(0.00016167476 -1.3923661e-05 0.00015733749)
(0.00011979109 -1.7151773e-05 9.7979323e-05)
(0.00015572153 -2.0520225e-05 0.00012532313)
(0.00014137114 -4.7892492e-06 7.9961193e-05)
(0.00013159712 -8.6462239e-06 8.5252403e-05)
(0.00015719531 -1.3361349e-05 0.00010602164)
(0.00017030883 -1.8964768e-05 0.00015466902)
(0.00016823934 -1.7414529e-05 0.00014669866)
(0.00012901102 -1.0241084e-05 8.1022689e-05)
(0.00014171649 -1.2796254e-05 9.6570129e-05)
(0.00017436844 -7.353872e-06 0.00017135465)
(0.00015966047 -1.8950474e-05 0.00014975672)
(0.00017273884 -1.714802e-05 0.00014951436)
(0.00014920006 -4.9199857e-06 0.00014954586)
(0.00012466522 -8.2351789e-06 7.2904389e-05)
(0.00015753399 -1.5907195e-05 0.00014377515)
(0.00015149675 -1.5950306e-05 0.00014601384)
(0.00015291753 -3.7649735e-06 0.00015127551)
(0.00017966784 -2.3559918e-05 0.00015238909)
(0.0001595731 -1.9672744e-05 0.00012759637)
(0.00016082817 -1.7640858e-05 0.00015390124)
(0.00018465754 -1.9666653e-05 0.00015197021)
(0.00012740188 -1.1763792e-05 0.00012879674)
(0.00012118159 -6.5951262e-06 6.9456686e-05)
(0.0001550589 -1.9367254e-05 0.00012538301)
(0.00015758809 -1.7146862e-05 0.00015217222)
(0.00011533916 -4.4890279e-06 6.7144535e-05)
(0.00016797819 -1.6761773e-05 0.00014053995)
(0.0001645651 -1.0960837e-05 0.00015366488)
(0.00010329419 -1.4219744e-05 7.0184302e-05)
(0.00012380482 -4.6031541e-06 7.6323159e-05)
(0.00012922023 -1.0277867e-05 0.00012726073)
(0.00013824592 6.882638e-08 7.4679624e-05)
(0.00012902428 -4.4932056e-06 7.0798977e-05)
(0.00011842327 -6.1421396e-06 7.1928389e-05)
(0.00013234923 3.1266937e-06 0.00013479684)
(0.00015687527 4.7856812e-06 0.00015254764)
(0.00012426483 -1.0824306e-05 7.9888681e-05)
(0.0001084041 -1.2260407e-05 7.7457162e-05)
(0.00016205396 -1.2471676e-05 0.00015469342)
(0.00016844298 -8.7867056e-06 0.00016812598)
(0.00016765739 -1.6830824e-05 0.0001482959)
(0.00013666944 -7.5509538e-06 8.9381274e-05)
(0.0001471246 -8.9770726e-06 0.00014330585)
(0.00018826106 -1.5783899e-05 0.00017553544)
(0.00017838002 -1.6332243e-05 0.00014649168)
(0.00016221135 -1.7498546e-05 0.00013886375)
(0.00019602178 -1.3627849e-05 0.00018304683)
(0.00014577636 -9.4029221e-06 0.00014817357)
(0.00015289963 -4.9343262e-06 0.00014922456)
(0.00014671868 -1.4256918e-05 0.00013009054)
(0.00016688988 -1.4251535e-05 0.00014757413)
(0.00015636622 -7.1371452e-06 0.00015257741)
(0.00019637886 -1.3437309e-05 0.00018118899)
(0.00015750085 -9.4822564e-06 0.00015430598)
(0.00017232796 -6.7216421e-06 0.00016380793)
(0.00017803825 -7.425788e-06 0.00016733658)
(0.00017148662 -1.8096366e-05 0.00014534847)
(0.00016623106 -1.0811268e-05 0.00016560146)
(0.00015059092 -2.1949841e-05 0.00012933723)
(0.00017693285 -4.258436e-06 0.00017481538)
(0.00018839673 -1.435264e-05 0.00017872027)
(0.00017575912 -4.3938071e-06 0.00017146324)
(0.00016683549 -4.3971427e-06 0.00016236772)
(0.00017815167 -1.2999069e-06 0.0001720412)
(0.00017164825 -1.270785e-05 0.00015869581)
(0.00016113857 -1.4890036e-05 0.0001466441)
(0.0001302649 -9.0154069e-06 0.00013200104)
(0.0001888736 -1.6027127e-05 0.00016747694)
(0.00014301119 -1.3706837e-05 0.00012860738)
(0.00016566391 -1.668959e-05 0.00015588245)
(0.00016418756 -1.9607658e-05 0.00016356363)
(0.00013315209 -9.2147161e-06 0.00013603036)
(0.00018435038 -1.5676958e-05 0.00016451596)
(0.00014775722 -1.7666871e-05 0.00012804743)
(0.00017159408 -1.675087e-05 0.00016214275)
(0.00013666423 -1.7083663e-05 0.00012601057)
(0.00017134496 -1.7357033e-05 0.00015744895)
(0.00014013519 -1.2850363e-05 0.00013389037)
(0.00016070346 -1.3676363e-05 0.00014071723)
(0.00016857091 -6.9322451e-06 0.00016205245)
(0.00016276721 -8.5008408e-06 0.00016659014)
(0.00016176264 -1.1979143e-05 0.00014914838)
(0.00015068245 -1.3113799e-05 0.00013595631)
(0.00014054971 -1.1114091e-05 0.00013544127)
(0.00015776099 -1.1581479e-05 0.00014776512)
(0.00018504791 -1.3416434e-05 0.0001707393)
(0.00014008723 -1.5814582e-05 0.00011705246)
(0.00016040084 -3.3071287e-06 0.00016637636)
(0.00016573912 -1.0313128e-05 0.00015408865)
(0.00017012681 1.6388688e-06 0.00017297173)
(0.00015650989 -6.7428072e-06 0.00015465171)
(0.00016281436 3.3309682e-06 0.00015914472)
(0.00015062999 -1.4517164e-05 0.00014204728)
(0.00017774041 -1.3894244e-05 0.0001703539)
(0.00015665827 -1.2472307e-05 0.0001543696)
(0.00014709943 -1.5285585e-05 0.00013708096)
(0.00013249752 -1.2305411e-05 0.00012218158)
(0.00015782357 -1.1069423e-05 0.00014014587)
(0.0001294802 -1.3921905e-05 0.0001272425)
(0.00015802566 -1.7264793e-05 0.00014095277)
(0.00017454474 -7.3623662e-06 0.00018015059)
(0.00017767474 -3.4098898e-06 0.000177159)
(0.00015188278 -1.5653144e-05 0.00014069841)
(0.00012961397 -1.2810512e-05 0.00012353116)
(0.00014663725 -1.5200798e-05 0.00012668061)
(0.00013510599 -1.2503623e-05 0.00012184956)
(0.00018618205 -9.3935418e-06 0.00017875997)
(0.00016123517 -1.8560535e-07 0.0001641083)
(0.00015320209 -1.639537e-05 0.00013582782)
(0.00014444188 -1.6581714e-05 0.00012774457)
(0.00014064733 -9.7575602e-06 0.00013902126)
(0.0001419016 -1.1919759e-05 0.00013706286)
(0.000115922 -1.1935796e-05 0.00010891972)
(0.0001539851 -5.4821447e-06 0.00015852028)
(0.0001195904 -1.2244537e-05 0.00011524711)
(0.00013617374 -1.354304e-05 0.00012454793)
(0.00017308776 -1.0954537e-05 0.00015067363)
(0.00014993495 -9.2832934e-06 0.00014274093)
(0.00016994962 4.146622e-07 0.00017078808)
(0.00012590914 -9.1056865e-06 0.00012708402)
(0.00019204404 -8.0536768e-06 0.00018032234)
(0.00015725345 -4.6229489e-06 0.00015448624)
(0.00014341201 -1.1721541e-05 0.00012822955)
(0.00015040359 -1.0884981e-05 0.00013622477)
(0.00015422136 -3.2190165e-06 0.00015321801)
(1.1213669e-05 -8.7471172e-06 9.2620532e-07)
(0.00015048917 -7.6546912e-06 0.00014272569)
(0.0001438152 -1.1991247e-05 0.00013767418)
(0.00016890852 -7.4584283e-08 0.00017189412)
(0.00014749826 -9.4048695e-06 0.0001419743)
(0.00014483485 3.5488494e-06 0.00015109279)
(0.00017258188 -6.2631325e-08 0.00017327275)
(0.00016683908 -1.0776235e-05 0.00014871838)
(0.00016906505 -1.1558527e-05 0.00015142158)
(0.00017067726 4.3759357e-07 0.00016803214)
(0.00017294056 2.8250898e-06 0.0001715935)
(0.00015437029 -3.4365806e-06 0.00015612383)
(0.00015529828 -7.2203684e-07 0.00015670137)
(1.1540122e-05 -6.5377175e-06 -1.9949425e-07)
(0.00014788333 4.6443149e-06 0.00014754396)
(0.0002025954 6.5542207e-06 0.00020171404)
(0.00013513093 -1.5491512e-05 0.00011819763)
(0.00015020941 3.8517685e-06 0.00015104709)
(0.00018358819 3.137559e-06 0.00017483027)
(0.00015262873 6.0627739e-07 0.00015763181)
(0.00015405681 -1.4082412e-05 0.00013044157)
(0.00014708472 4.6565147e-06 0.00015021013)
(0.00014446602 4.1490472e-06 0.00014869545)
(0.00017686826 3.7507056e-06 0.00017486969)
(0.0001516234 -1.5469895e-06 0.00014922568)
(0.00014259546 -1.4307763e-05 0.00012946702)
(0.00021222611 8.5627908e-06 0.00020017771)
(0.00017555579 2.4306538e-06 0.00017293829)
(0.00015879174 8.7774688e-08 0.00015887343)
(0.00012062993 -1.1945291e-05 0.00011203079)
(0.00014974612 6.6066061e-08 0.00014673198)
(0.0001510574 3.7918703e-06 0.00015579988)
(0.00016716262 4.9834234e-06 0.00016799441)
(0.00015791918 1.4135876e-06 0.00016273414)
(0.00015225916 3.7631333e-06 0.00015346798)
(0.0001543342 4.3673619e-06 0.0001551064)
(0.00015412369 -1.3794183e-05 0.00013665593)
(0.00014547863 -5.7723474e-07 0.00014575073)
(0.00015115644 -1.3332224e-05 0.00012943508)
(0.00017803029 3.615244e-06 0.00017294229)
(0.00015752339 -1.10391e-05 0.00013037697)
(0.00014654201 5.7591689e-07 0.00014394686)
(0.00014580436 -9.2185203e-06 0.00013579938)
(0.00017157539 -4.0004327e-06 0.00017134205)
(0.00014397958 5.1077075e-07 0.00014221733)
(0.00016340448 -1.1094005e-05 0.00014972838)
(0.0001300306 6.3676621e-06 0.00013144316)
(0.0001558016 4.6650805e-06 0.00015764279)
(0.00014556494 -1.4791983e-05 0.00011829538)
(0.00017506331 5.7120363e-06 0.0001766079)
(0.00018102045 7.5285029e-06 0.00017441383)
(0.000142016 -1.073825e-05 0.00012112617)
(0.00018595151 -9.0409865e-06 0.00017054542)
(0.00016345374 8.9953188e-06 0.00015803018)
(0.00014866627 2.1265668e-06 0.00015056666)
(0.00018391916 5.6566096e-06 0.000176296)
(0.00014464005 -8.0587664e-06 0.00010053656)
(0.00013699584 -1.0293458e-05 9.5086862e-05)
(0.00014796089 4.4908557e-06 0.00014783832)
(0.00015678457 -7.9812561e-06 0.00013652096)
(0.00018969293 -1.0091453e-05 0.00017592897)
(0.00014577428 -7.8696185e-06 0.00013302331)
(0.00013636388 -9.7041846e-06 0.00013578749)
(0.00018258676 7.0467914e-06 0.00017463373)
(0.00017683637 -8.7310707e-06 0.00016840321)
(0.00015983983 6.6944208e-06 0.00015470897)
(0.00017471975 6.5602043e-06 0.00017394841)
(0.00018091843 7.6131738e-06 0.00017338792)
(0.0001638955 8.8723867e-06 0.00015631752)
(0.00016754145 8.7508e-06 0.00017228428)
(0.00017615534 8.474803e-06 0.00017123816)
(0.0001856453 -8.5867507e-06 0.00017911516)
(0.00015172345 9.0424799e-06 0.00014445471)
(0.00015629959 -1.2504784e-05 0.00014671216)
(0.00011758793 9.4204148e-06 0.00012083878)
(0.0001606882 9.3758179e-06 0.00015596839)
(0.00014976015 1.194342e-05 0.00015357022)
(0.00015965238 -8.7337311e-06 0.0001386831)
(0.00015282552 7.2527958e-06 0.00015413701)
(0.00015582409 1.2699558e-05 0.00015230424)
(0.00011607822 -1.3879117e-05 8.4193168e-05)
(0.00013932598 -1.1133261e-05 0.00011920577)
(0.00014560034 7.7159038e-06 0.00014266234)
(0.00017761591 -2.0877555e-05 0.00013756276)
(0.00015418021 1.1329551e-05 0.00015020597)
(0.00015180397 -4.2009578e-06 0.0001526641)
(0.00011738554 -1.5383004e-05 8.1201261e-05)
(0.00015107067 -1.2446048e-05 0.00013592815)
(0.00014542296 -6.6750918e-06 0.00013908518)
(0.00013302578 -1.6437265e-05 0.00011216766)
(0.00015394218 -1.267483e-05 0.00013702775)
(0.000187593 -1.7905737e-05 0.00014162115)
(0.00017637892 9.2016602e-06 0.00018364946)
(0.00014029112 -8.9225574e-06 0.00013105277)
(0.00013507887 -9.6013966e-06 0.00011376093)
(0.00015415113 -1.6512023e-06 0.00015835446)
(0.00017179494 -4.1472266e-06 0.00016767827)
(0.00015709872 5.0471303e-07 0.0001599307)
(0.00013374475 -7.6842828e-06 0.00012346398)
(0.00017345875 6.9337012e-06 0.00016859066)
(0.00014152382 -1.1017601e-05 0.00011542946)
(0.00014761313 -8.4047905e-06 0.00013376889)
(0.00014424132 -1.0796304e-05 0.00013295692)
(0.00014274643 -9.9189241e-06 0.00012639083)
(0.00010698132 -1.0411576e-05 7.7181014e-05)
(0.00012744452 -1.1232589e-05 0.00011212188)
(0.00013969499 -1.1693579e-05 0.00012573177)
(0.00013167612 -1.1819063e-05 0.00011235314)
(0.00016065342 9.4214617e-06 0.00015854938)
(0.00013547067 -9.4674313e-06 0.00011637072)
(0.00015867588 -7.2006278e-06 0.00014038375)
(0.00014649012 -8.0446309e-06 0.00012747327)
(0.00018837169 -8.8583965e-06 0.00017655232)
(0.00016551508 -1.470978e-05 0.00013822072)
(0.00013178403 -1.1790474e-05 0.00011350591)
(0.00014923316 -1.0780817e-05 0.00013472083)
(0.00018088702 -1.1487372e-05 0.00017396545)
(0.00014192388 -9.8629363e-06 0.00012371239)
(0.00012278507 -1.1334096e-05 0.00010649219)
(0.00014102253 -1.5931834e-05 0.0001164611)
(0.00015163522 -1.4139275e-05 0.00012573754)
(0.0001211976 -1.0413056e-05 0.0001026946)
(0.00013529217 -8.1794671e-06 0.00011025029)
(0.00013300391 -7.43223e-06 0.0001115833)
(0.00015134142 -8.2977742e-06 0.00012479621)
(0.00014044211 -8.518223e-06 0.00011701419)
(0.00015716227 -6.9671379e-06 0.00012669196)
(0.00013865143 -5.93641e-06 0.00011370758)
(0.00011523712 -9.3348268e-06 0.00010077836)
(0.00013210753 -8.3086814e-06 0.000112073)
(0.00014778648 -6.8758095e-06 0.00012484513)
(0.00010883837 -8.1635557e-06 9.273822e-05)
(0.00013333262 -1.1776233e-05 0.00011385114)
(0.00014194571 -7.267068e-06 0.0001215124)
(0.00015142238 -8.1946226e-06 0.00012436973)
(0.0001301983 -6.1122977e-06 0.00010530948)
(0.00017164225 -1.4736441e-05 0.00013980445)
(0.00013879808 -1.1686741e-05 0.00011526539)
(0.00014216477 -9.9140772e-06 0.00011784484)
(0.00013266469 -1.0390757e-05 0.00011458484)
(0.00011235173 -1.0096241e-05 0.0001028743)
(0.00015769425 -8.0100308e-06 0.00012527851)
(0.00014805367 -6.9988179e-06 0.00012431416)
(0.00014143551 -7.9540047e-06 0.00012142998)
(0.0001391574 -6.0188405e-06 0.00011240183)
(0.00015049391 -9.4266327e-06 0.00012952263)
(0.00013313301 -5.852316e-06 0.00011112708)
(0.00015783007 -5.7197451e-06 0.00014894973)
(0.00014306305 -9.3056719e-06 0.00011694777)
(0.00012601441 -8.4594821e-06 0.00010930208)
(0.0001410406 -8.4837947e-06 0.00011243856)
(0.000126047 -8.6874945e-06 0.00011310716)
(0.00014738421 -1.0583527e-05 0.000131325)
(0.00011137648 -1.1724272e-05 9.1583351e-05)
(0.00013434864 -1.2523439e-05 0.00011092672)
(0.00017902157 -9.110697e-06 0.00013120387)
(0.00014965247 -1.3013751e-05 0.00012408198)
(0.00013827208 -1.1277602e-05 0.00010873944)
(0.00015339447 -6.7882867e-06 0.0001212994)
(0.00018179761 -1.9553141e-05 0.00014088196)
(0.00012666971 -1.1260654e-05 0.0001061229)
(0.00014662804 -1.0564167e-05 0.0001176499)
(0.0001116368 -7.2850773e-06 8.973018e-05)
(0.00014088254 -1.2167033e-05 0.00011352067)
(0.00014913128 -8.5141826e-06 0.00011773121)
(0.00015461512 -7.6826122e-06 0.00014644432)
(0.00014638103 -1.185766e-05 0.00011623872)
(0.0001399983 -8.9057126e-06 0.0001066147)
(0.00012375743 -6.6490432e-06 9.9539306e-05)
(0.00014441914 -9.3031732e-06 0.00011113799)
(0.00016194491 -5.7021717e-06 0.00012338391)
(0.00013083883 -3.7270665e-06 0.00010554244)
(0.00016739096 -4.9372037e-06 0.00012585747)
(0.00013742821 -1.0587264e-05 0.00011269144)
(0.0001396493 -8.5199186e-06 0.0001098391)
(0.00011320111 -1.2133341e-05 8.9170258e-05)
(0.00014386691 -3.9650154e-06 0.00011004302)
(0.00017814028 -1.1239429e-05 0.00017151273)
(0.00015694663 -1.845524e-06 0.00012457272)
(0.00013892649 -9.5804191e-06 0.0001075475)
(0.00013860943 -9.7578797e-06 0.00013206284)
(0.00013902606 -1.3789136e-05 0.00010618085)
(0.00014390655 -7.15586e-06 0.00011263695)
(0.00015439571 -4.5355933e-06 0.00011426623)
(0.00013047362 -8.0944273e-06 0.00012182697)
(0.0001187177 -1.5433223e-05 9.1908079e-05)
(0.00014522979 -2.0630332e-06 0.00011067705)
(0.00012963426 -1.4501384e-05 0.00010335995)
(0.00018717998 -1.5442955e-05 0.00013723311)
(0.0001732092 -9.6411391e-06 0.00012580724)
(0.00012516159 -6.8402733e-06 0.0001004165)
(0.00014110641 -1.0248388e-05 0.00010333599)
(0.00011523323 -1.086636e-05 9.9092444e-05)
(0.00015888924 -8.9783593e-06 0.00011911018)
(0.00015971349 -1.2371304e-05 0.00012117897)
(0.00016149685 -6.753696e-06 0.00014204752)
(0.00016086329 -3.39873e-08 0.00011609722)
(0.00013252495 -5.3161595e-06 0.00010532667)
(1.4337754e-05 -1.0572765e-05 3.5098891e-06)
(0.00015649024 -1.4793318e-05 0.0001245479)
(0.0001296769 -1.0108686e-05 9.6759937e-05)
(0.00012471527 -1.3377779e-05 9.2994322e-05)
(0.00013219843 -1.4148003e-05 0.00010103437)
(0.00015077222 -4.7389885e-06 0.00012203744)
(0.00014438017 -2.1887134e-06 0.0001054168)
(0.00014096944 -7.9441445e-06 9.9316096e-05)
(0.00012593545 -1.1403924e-05 9.0971427e-05)
(0.00011422731 -7.5869108e-06 9.0158516e-05)
(0.00014773266 -1.5918009e-05 0.00011085644)
(0.0001248568 -6.7920789e-06 0.00010265198)
(0.00013942738 -4.3474897e-06 0.00010859204)
(0.0001759035 -1.7574756e-05 0.0001317436)
(0.00015253986 -1.0309508e-05 0.00013956822)
(0.00013891591 -1.4842411e-06 0.00010790999)
(0.00012308577 -5.2280589e-06 9.8934897e-05)
(0.00011379119 -1.1791215e-05 9.2704135e-05)
(0.00013901773 6.3785816e-07 0.00010567959)
(0.00015740012 -1.4066283e-05 0.00012390546)
(0.00012955324 -8.2773032e-06 0.00010384656)
(0.00013110438 -5.330514e-06 0.00010403699)
(0.00011487862 -8.8320993e-06 0.00010541565)
(0.00016487616 -1.0163848e-05 0.00012580846)
(0.00012686152 -5.3047467e-06 0.00010013724)
(0.00012568509 -4.7861738e-06 9.4400194e-05)
(9.565508e-05 -7.7777903e-06 7.532674e-05)
(0.00013729418 -2.4430911e-07 0.00010407385)
(0.00013942862 -7.7166411e-06 0.00011753521)
(0.00012016436 -9.0326173e-07 9.1101566e-05)
(0.0001177789 -4.3126761e-06 9.1086478e-05)
(9.6107081e-05 -8.4523803e-06 7.8426834e-05)
(0.00016600297 -1.0561658e-05 0.00012299279)
(0.00017411247 -1.443261e-05 0.00012989075)
(1.6482186e-05 -9.3850104e-06 2.2340387e-06)
(0.00010837977 -3.8217265e-06 8.0162869e-05)
(0.00012009232 -9.291753e-06 0.00010064505)
(0.00014009149 2.2110691e-06 0.00010580129)
(0.00018489157 -1.3877648e-05 0.00014154415)
(0.00011847559 -4.2830294e-06 9.1035215e-05)
(0.00013858518 3.9639038e-06 0.00010181958)
(0.00013225332 -6.6903153e-06 0.00010229342)
(0.00012623849 -3.16107e-06 9.6404223e-05)
(0.00013652506 -2.6058509e-06 0.00010463787)
(0.00011885819 -3.9805532e-06 8.7214479e-05)
(0.00012923463 -5.1513456e-06 9.8134684e-05)
(0.00014344575 -9.5572767e-06 0.00013304384)
(0.00015519922 -7.0634548e-06 0.00013860294)
(0.00013016703 -7.8837548e-06 0.00010254178)
(0.000175894 -9.9862786e-06 0.00017588885)
(0.00016134011 -1.9047837e-05 0.00013071892)
(0.00012303602 2.9258628e-06 8.9475023e-05)
(0.00011390686 -2.2916737e-06 8.4131168e-05)
(0.00010928031 -4.3774502e-06 8.2406542e-05)
(0.00011828753 -6.563801e-07 8.6127296e-05)
(0.00011384027 -5.0599398e-06 8.5124768e-05)
(0.00011378933 -5.0687843e-06 8.3619839e-05)
(0.00012778147 -4.151482e-06 9.7532889e-05)
(0.00013051668 8.338069e-07 9.4253683e-05)
(0.00010320249 -5.2368532e-06 7.7654714e-05)
(0.00016182682 -1.2791572e-05 0.00012504149)
(0.00014231281 3.2009896e-06 0.00010675556)
(0.00010493557 -2.4850833e-06 7.643504e-05)
(0.00014537702 -1.2246955e-05 0.00013651402)
(0.00011213325 -3.0683319e-06 8.1211655e-05)
(0.00010085877 -7.2362687e-06 7.6654228e-05)
(0.00013231621 -1.1284868e-05 0.00011279909)
(0.00012776967 -3.6839104e-06 9.7152776e-05)
(0.00011608897 -7.4864506e-06 9.1734498e-05)
(8.8640706e-05 -1.7377745e-06 6.7751777e-05)
(9.9202263e-05 -3.0451644e-06 7.2519263e-05)
(0.00011050072 -7.9776245e-06 8.8049438e-05)
(0.00011400289 5.2451496e-07 8.1314159e-05)
(9.8352397e-05 -1.5885524e-06 7.0279769e-05)
(0.00010458325 -6.4873785e-06 8.1938146e-05)
(0.00010380464 -1.9769425e-06 7.6513664e-05)
(8.8231364e-05 -6.6169963e-06 6.8605609e-05)
(0.00011934571 -6.1210803e-06 9.1621282e-05)
(0.00016820012 -1.8968906e-05 0.00013079817)
(0.00012338914 -2.216216e-06 9.2062591e-05)
(8.603393e-05 -5.6473477e-06 6.7463201e-05)
(0.00012839444 -6.6590507e-06 9.9288483e-05)
(0.00015447007 -1.4933235e-05 0.00011961514)
(0.00017544766 -1.9850078e-05 0.00013935004)
(0.00010379002 -3.8857869e-06 8.0608207e-05)
(0.00014707929 -9.2339557e-06 0.00013771614)
(0.00014327687 -1.0179448e-05 0.00013757001)
(0.0001233883 -8.8684752e-06 0.00011718946)
(0.00015093783 -7.0477095e-06 0.00014596521)
(0.0001270529 -7.2955334e-06 0.0001204127)
(8.2912762e-05 -6.0626753e-06 6.0533301e-05)
(0.00010433389 -6.2331232e-07 7.6897106e-05)
(0.00011466616 3.7494108e-06 8.1901502e-05)
(0.00016294805 -1.0838276e-05 0.00012219919)
(0.00014795131 -5.2478972e-06 0.00014494161)
(0.00013986391 -4.8395945e-06 0.0001376197)
(0.00014564244 -3.4090161e-06 0.00013830578)
(0.00015652397 -1.4649579e-05 0.00012145018)
(9.7667225e-05 -4.5873856e-06 7.3975351e-05)
(0.00013721809 -3.6576229e-06 0.00013322963)
(0.00018003289 -1.3598607e-05 0.0001319361)
(0.000168698 -1.5683817e-05 0.00012592486)
(0.00011135129 -2.782225e-07 8.010462e-05)
(0.00012243257 -6.1288454e-07 9.0706937e-05)
(0.00010397493 -9.7611325e-07 7.6324217e-05)
(0.00018034496 -1.5231492e-05 0.00013556652)
(8.526119e-05 -1.0298682e-05 6.5185106e-05)
(0.00013301262 -1.0739758e-05 0.0001131345)
(0.00013482342 -3.4955706e-06 0.00010084583)
(0.00011996017 -1.0384894e-05 9.206776e-05)
(9.5201507e-05 -6.2178394e-06 7.4017658e-05)
(0.00011960331 -4.5331817e-06 8.7320213e-05)
(0.00012953018 -7.2346786e-06 9.8185997e-05)
(0.00011840385 -8.0147948e-06 8.5445476e-05)
(0.00011303586 -3.9065212e-06 8.1965559e-05)
(0.00012116863 -9.0462409e-06 9.3574866e-05)
(0.00010859439 -4.9589822e-06 7.7713137e-05)
(0.00012546287 -1.5611957e-06 8.7803875e-05)
(0.0001082812 -7.5841517e-06 7.9756033e-05)
(0.00010785625 -9.907477e-06 8.3768911e-05)
(0.00010395905 -7.8633794e-06 7.7558336e-05)
(0.00011243531 -8.3391342e-06 8.3469248e-05)
(0.00010668937 -8.1377205e-06 8.216939e-05)
(0.00012345394 -5.2704937e-06 8.5354297e-05)
(0.00012953917 -6.2172271e-06 0.0001010073)
(0.00011837046 -7.6236203e-06 8.5712255e-05)
(0.0001239284 -3.4873569e-06 9.0964715e-05)
(0.00010834683 -1.149486e-05 8.456204e-05)
(0.00012702354 -6.6556831e-06 9.7312027e-05)
(0.00012169489 -8.445012e-06 9.6137208e-05)
(0.00011999596 -9.7133657e-06 9.5207747e-05)
(0.00011359066 -1.1042114e-05 8.7304391e-05)
(0.00012093185 -7.1677198e-06 8.8581778e-05)
(0.00011045138 -4.0102776e-06 8.0726194e-05)
(0.0001259491 -9.3147239e-06 9.943537e-05)
(0.00012844067 -2.7983344e-06 9.376821e-05)
(0.00012592755 -7.9380462e-06 9.4544208e-05)
(0.00011894321 -1.0437595e-05 9.8695342e-05)
(0.00011879267 -1.0379733e-05 9.0389943e-05)
(0.00012355379 -6.8467664e-06 9.741429e-05)
(0.00012916996 -6.1801586e-06 0.00010360956)
(0.00011316156 -9.3598147e-06 9.1555989e-05)
(0.00014004831 -1.1670714e-05 0.00011290814)
(0.00010951428 -1.1669824e-05 8.7304844e-05)
(0.00012081276 -1.0866948e-05 9.4971501e-05)
(0.0001204128 -1.058e-05 9.5051405e-05)
(0.00012170828 -1.154477e-05 0.00010177604)
(0.00012880893 -9.5489197e-06 0.00010740714)
(0.00013322113 -9.6282235e-06 0.0001093117)
(0.00015690494 -1.2639953e-05 0.00012779971)
(0.00011362791 -1.3758297e-05 9.3874402e-05)
(0.00011581186 -1.3667963e-05 0.00010388678)
(0.00010255888 -1.2547515e-05 9.2099404e-05)
(0.0001526046 -1.5824725e-05 0.00012550009)
(0.00012100551 -1.140255e-05 0.00010487521)
(0.00011846447 -1.3657943e-05 9.5312694e-05)
(0.00011840002 -1.4805577e-05 0.00010697956)