/*--------------------------------*- C++ -*----------------------------------*\
  =========                 |
  \\      /  F ield         | OpenFOAM: The Open Source CFD Toolbox
   \\    /   O peration     | Website:  https://openfoam.org
    \\  /    A nd           | Version:  11
     \\/     M anipulation  |
\*---------------------------------------------------------------------------*/
FoamFile
{
    format      ascii;
    class       volVectorField;
    location    "1301";
    object      wallShearStress;
}
// * * * * * * * * * * * * * * * * * * * * * * * * * * * * * * * * * * * * * //

dimensions      [0 2 -2 0 0 0 0];

internalField   uniform (0 0 0);

boundaryField
{
    wall-fluid_domain
    {
        type            calculated;
        value           nonuniform List<vector> 
50990
(
(9.1592089e-05 -1.5368068e-05 2.4615847e-06)
(8.8033243e-05 -1.8518852e-05 1.9825201e-06)
(5.3103475e-05 -1.7468967e-05 -4.8393023e-06)
(9.1453119e-05 -1.761934e-06 8.0195081e-06)
(9.5806132e-05 -1.5257427e-05 -2.3148356e-06)
(0.0001160343 1.2703101e-06 9.7670072e-06)
(8.6733437e-05 -1.6386934e-05 3.5198837e-06)
(8.3998741e-05 -8.2387789e-06 3.8163283e-06)
(0.00010715558 -5.4327197e-06 1.1022231e-05)
(0.00012233696 -1.413217e-05 9.8387771e-06)
(8.1776462e-05 -9.3035793e-06 2.788301e-06)
(0.00011435596 -1.1175483e-05 8.4400917e-06)
(5.5566703e-05 -2.1151102e-05 -7.4173511e-06)
(9.2903572e-05 -1.8715227e-05 -1.0322011e-06)
(0.00013996585 -4.9844575e-06 2.157454e-05)
(0.00014280886 2.3327674e-06 1.5020246e-05)
(0.00011848452 -6.4440668e-06 1.0126011e-05)
(9.5002725e-05 -1.7832959e-05 -3.3068441e-06)
(0.00011926071 1.7522668e-06 1.216621e-05)
(0.0001081068 4.5776525e-06 1.2112476e-05)
(8.6767824e-05 1.6264619e-05 -1.4768017e-05)
(0.00011708465 4.3046678e-07 1.1225947e-05)
(0.00012533476 -7.9734614e-06 1.3897837e-05)
(0.0001209047 -2.9725792e-06 1.1006701e-05)
(8.7689286e-05 -1.9122639e-05 -5.239113e-06)
(0.00012511122 6.2704299e-06 1.447077e-05)
(7.6537838e-05 1.7509751e-05 -1.0937815e-05)
(0.00011246416 3.0648827e-06 1.0601761e-05)
(8.0615366e-05 -2.808885e-05 -5.7172125e-06)
(8.3700253e-05 2.8139347e-05 -1.7161318e-05)
(0.00013372393 -3.1116783e-06 1.6497497e-05)
(0.00014062237 1.406104e-05 2.5888863e-05)
(0.00012130472 -1.1204436e-06 1.2542858e-05)
(0.00013521399 8.9771945e-06 1.832022e-05)
(-1.4858557e-05 -1.6035132e-06 -7.4584526e-06)
(0.00013695592 1.2594201e-05 2.1995213e-05)
(0.00011409021 4.4376082e-06 1.1703489e-05)
(0.00013768871 -5.7624962e-06 1.3618593e-05)
(0.00011830743 5.7856403e-06 1.7079935e-05)
(0.00015151059 1.6393502e-05 3.1744035e-05)
(0.00011845913 2.5238472e-06 1.4662773e-05)
(0.00014545575 -1.3662433e-05 2.594839e-05)
(7.6648871e-05 -3.9816323e-05 -2.259035e-06)
(5.6988379e-05 -2.6639792e-05 -4.5141008e-06)
(9.7170221e-05 2.5957294e-05 4.022006e-06)
(0.00012935455 -6.2954059e-06 1.830391e-05)
(0.00011928764 1.0818284e-05 2.4045244e-05)
(0.00013361807 -8.3403842e-06 2.1098605e-05)
(0.0001078795 -3.1817578e-06 1.266436e-05)
(0.0001117867 -2.7498292e-06 1.6724199e-05)
(6.7184589e-05 -2.1214925e-05 -3.0450956e-06)
(8.3722086e-05 -2.7133752e-05 -9.0836211e-09)
(-2.4921231e-06 -5.7834597e-06 -1.3525737e-06)
(-8.0381794e-06 -3.0060949e-06 -2.7626955e-06)
(7.91958e-05 -2.0462827e-05 -1.6124514e-06)
(-1.4538802e-05 -1.9908792e-06 -7.1275952e-06)
(0.00012395221 -9.5314593e-06 2.1133537e-05)
(8.7805099e-05 -1.872913e-05 1.4948813e-06)
(6.9689079e-05 -3.0263288e-05 -2.1515379e-06)
(9.1483274e-05 1.8932505e-05 -1.5731763e-05)
(6.981983e-05 -2.5399903e-05 -3.1749899e-06)
(7.1596353e-05 -3.0506478e-05 -5.4300702e-06)
(6.5173362e-05 -2.653048e-05 -3.1553514e-06)
(6.8805321e-05 -2.0975492e-05 -4.3270501e-06)
(9.8573732e-05 -1.5793495e-05 5.096426e-06)
(4.9048046e-05 -2.7256497e-05 -6.5685254e-06)
(0.00010705262 -1.50128e-05 8.2418515e-06)
(5.0557935e-05 -2.3462042e-05 6.1257147e-07)
(0.00015382569 -1.9260203e-05 8.7178778e-05)
(8.1390599e-05 -1.4375498e-05 2.0691129e-06)
(6.3370322e-05 -3.0409825e-05 2.6541702e-07)
(5.5947395e-05 -2.9144825e-05 -2.6973416e-06)
(4.1990165e-05 -2.5683966e-05 -1.3874574e-06)
(0.00010207752 -9.2534447e-06 1.0002381e-05)
(4.7075451e-05 -2.2667797e-05 -1.8430994e-06)
(6.6579166e-05 -2.6099423e-05 -1.8955855e-06)
(4.6818222e-05 -2.6868628e-05 -7.120816e-07)
(3.7574753e-05 -2.388426e-05 -3.8479025e-06)
(4.2070476e-05 -2.5685381e-05 -1.9626441e-06)
(4.8637714e-05 -2.6542745e-05 1.4191075e-06)
(5.9495086e-05 -2.3947001e-05 -1.7193773e-06)
(3.5922737e-05 -2.5501927e-05 5.0683843e-07)
(3.5532185e-05 -2.4646385e-05 3.8283649e-07)
(6.51692e-05 -2.0801674e-05 -4.7552644e-06)
(4.3547329e-05 -2.5084011e-05 -1.2857388e-06)
(4.8479829e-05 -2.8082408e-05 3.616695e-06)
(5.583877e-05 -2.230137e-05 -1.1504779e-06)
(6.7387388e-05 -2.4021983e-05 -2.9146259e-06)
(3.5984495e-05 -2.3382362e-05 2.0454033e-06)
(3.1919849e-05 -2.5631944e-05 1.4262814e-06)
(4.5419253e-05 -2.212083e-05 8.4198874e-07)
(3.7351957e-05 -2.2227195e-05 1.6099366e-06)
(3.2058057e-05 -2.4822647e-05 2.23028e-06)
(3.0364869e-05 -2.0047674e-05 -7.8859958e-07)
(0.00015657756 -2.0456014e-05 8.5265272e-05)
(0.00014560451 -1.7040327e-05 7.9601405e-05)
(0.00010873209 -1.5361716e-05 6.290899e-05)
(8.4273191e-05 -1.6411514e-05 9.2035595e-07)
(3.2031591e-05 -2.1595009e-05 -2.3529256e-06)
(0.00010086324 -1.1522219e-05 5.9540237e-06)
(7.8961459e-05 -1.4205993e-05 2.9945825e-06)
(9.4578343e-05 -7.9878889e-06 8.1799585e-06)
(2.42873e-05 -1.9885354e-05 5.8861811e-07)
(7.5691934e-05 -1.6286732e-05 2.3222775e-06)
(8.4283553e-05 2.1140093e-05 -1.9043549e-05)
(2.2337094e-05 -1.7690078e-05 -1.5103175e-06)
(1.9145663e-05 -1.8212218e-05 -1.0899927e-06)
(1.4823645e-05 -1.8491498e-05 1.5911587e-06)
(1.8441282e-05 -1.5911995e-05 1.4477842e-06)
(9.890276e-05 -4.0016039e-06 1.0653162e-05)
(8.2217976e-05 -1.290497e-05 4.5616779e-06)
(9.6455748e-05 -1.2614782e-05 7.780164e-06)
(0.00010422121 -1.5627026e-05 1.0274676e-05)
(8.102042e-05 -1.9484712e-05 5.4377025e-06)
(8.118524e-05 -1.8542552e-05 5.5161034e-06)
(9.9991384e-05 -1.0249158e-05 1.0025853e-05)
(8.6776792e-05 -1.4935575e-05 8.6314789e-06)
(7.7294697e-05 -1.4397182e-05 5.1421697e-06)
(9.0651009e-05 -1.0467837e-05 9.9632257e-06)
(8.588571e-05 -9.6624466e-06 7.5210291e-06)
(8.3303712e-05 -1.3443697e-05 5.5939617e-06)
(7.7096202e-05 -1.7796645e-05 1.9760611e-06)
(6.0565244e-05 -1.2940497e-05 5.12992e-06)
(6.8020604e-05 -1.8660925e-05 4.5545248e-06)
(8.6807587e-05 -2.1281826e-05 8.419019e-06)
(8.5336037e-05 -1.758558e-05 6.8234403e-06)
(8.4465256e-05 -1.1592951e-05 7.5096328e-06)
(0.00010031193 -1.2336828e-05 1.1424665e-05)
(8.7659252e-05 -1.8797879e-05 8.0592846e-06)
(8.7026595e-05 -1.8643287e-05 8.6169335e-06)
(0.00010378433 -7.2647116e-06 1.0800159e-05)
(8.4959056e-05 -8.6589875e-06 9.2319042e-06)
(0.00010261371 -6.2213604e-06 1.1724777e-05)
(9.5122409e-05 -7.6218362e-06 1.058712e-05)
(0.00011950999 4.6306009e-06 1.4565698e-05)
(9.2023287e-05 -5.0274628e-06 9.8442318e-06)
(8.2634422e-05 -1.448659e-05 7.1607518e-06)
(0.00010561487 -4.0339092e-06 1.230081e-05)
(9.2712855e-05 -1.6049466e-05 1.0115419e-05)
(8.3232903e-05 -1.1739185e-05 7.893069e-06)
(6.6340418e-05 -1.5553511e-05 6.7834262e-06)
(9.5675917e-05 -8.3051328e-06 1.1591605e-05)
(9.3905198e-05 -1.0746049e-05 9.7654984e-06)
(0.00010231765 -2.2534654e-06 1.3207026e-05)
(9.570957e-05 -5.746435e-06 1.3749209e-05)
(8.1351929e-05 -2.1971869e-05 1.1171032e-05)
(0.00012317088 1.0135728e-05 2.1508057e-05)
(9.5151014e-05 1.4633338e-05 4.6502923e-06)
(6.5841063e-05 -9.9283981e-06 6.8162339e-06)
(0.00010561974 1.1820377e-05 8.820911e-06)
(9.0811994e-05 -1.2207085e-05 1.249356e-05)
(9.5412351e-05 -5.2756183e-06 1.3074655e-05)
(8.3243991e-05 1.5689471e-05 2.7065717e-06)
(8.3753873e-05 -1.0989299e-05 1.1230024e-05)
(0.0001034277 -4.3863757e-06 1.5006622e-05)
(9.0996288e-05 5.9470165e-06 9.1568311e-06)
(7.8778899e-05 -6.1455834e-06 9.3907738e-06)
(0.0001046642 -5.4952701e-06 1.4111051e-05)
(8.5157795e-05 -5.662793e-06 1.1239808e-05)
(0.00010978773 -1.1217197e-06 1.481412e-05)
(7.0922884e-05 -1.2808772e-05 9.709618e-06)
(8.7409786e-05 -1.0374925e-05 1.3410268e-05)
(8.376713e-05 -1.4784911e-05 1.0181475e-05)
(0.00011069391 -5.0048665e-06 1.7378537e-05)
(8.8365405e-05 -5.7197339e-06 1.3016561e-05)
(0.00010088119 -1.6176534e-05 1.7504161e-05)
(0.00010099161 -1.1342148e-05 1.5523324e-05)
(0.00011419932 3.7448335e-07 1.8128162e-05)
(0.00010892557 -7.5888284e-06 1.531298e-05)
(0.00010195749 -3.3946673e-06 1.4733125e-05)
(0.00010642152 1.0966529e-06 1.7706721e-05)
(0.00014318113 1.0054484e-05 3.0752344e-05)
(9.4977798e-05 -9.8537447e-06 1.4947195e-05)
(0.00012144197 -5.9495291e-06 1.4985873e-05)
(9.9526623e-05 -8.3557637e-07 1.6639871e-05)
(9.872382e-05 -1.1243042e-05 1.5980172e-05)
(0.00015284007 -2.7772185e-05 2.8692639e-05)
(8.0759247e-05 -1.0202594e-05 1.3566566e-05)
(9.2804081e-05 -6.299297e-06 1.5170997e-05)
(9.2600027e-05 -6.1851157e-07 1.3756015e-05)
(9.9364679e-05 -5.0560289e-06 1.641587e-05)
(7.6789108e-05 -6.0357378e-06 1.2214448e-05)
(0.00010217246 3.1298509e-06 1.8330484e-05)
(8.4434716e-05 -8.598422e-06 1.0981882e-05)
(8.8832964e-05 -8.5556889e-06 1.5488117e-05)
(8.1932318e-05 -6.6097789e-06 1.3981321e-05)
(0.00011818986 5.0128174e-06 2.2353218e-05)
(9.6068106e-05 -3.5146376e-07 1.7051985e-05)
(8.5561482e-05 -4.785712e-06 1.5143441e-05)
(0.00014225974 -2.3846076e-05 2.5060055e-05)
(9.1331935e-05 -1.3664914e-06 1.5820544e-05)
(0.00010716098 3.1320696e-07 2.2235999e-05)
(8.371979e-05 -7.8015471e-06 1.368686e-05)
(9.2174987e-05 -3.5568405e-06 1.6853001e-05)
(9.3083685e-05 2.2711618e-05 4.3800118e-06)
(0.00010053964 5.1357621e-06 2.1118487e-05)
(8.4029633e-05 -8.5391886e-06 1.6397933e-05)
(8.2560029e-05 -4.9461995e-06 1.3650793e-05)
(0.00012230683 5.1673521e-06 2.7210459e-05)
(9.3571651e-05 -1.0275516e-08 1.3909413e-05)
(8.9489071e-05 2.069599e-08 1.8647321e-05)
(7.9826509e-05 -3.5099774e-06 1.5021414e-05)
(9.4113505e-05 -3.5330628e-06 1.8604216e-05)
(0.00011117571 1.6360943e-06 2.1962848e-05)
(9.3714974e-05 -1.8717639e-06 1.8570126e-05)
(8.2116931e-05 -7.2365884e-06 1.4349726e-05)
(0.00011347723 -4.9132315e-06 1.5037708e-05)
(7.6330945e-05 -1.3100993e-05 1.4652094e-05)
(0.00011833208 -1.0060381e-06 2.4720612e-05)
(0.00012148791 2.8954389e-07 1.9929557e-05)
(7.9656611e-05 -3.9086581e-06 1.5667725e-05)
(8.1714486e-05 -1.6074028e-06 1.5363007e-05)
(0.00012764638 6.0605761e-06 2.9334427e-05)
(0.00010244613 3.3971086e-06 2.3189145e-05)
(8.5800551e-05 -6.6134089e-06 1.7768645e-05)
(0.00011605811 2.4557408e-06 1.3432828e-05)
(7.2212893e-05 -4.5182461e-06 1.4223734e-05)
(6.9390522e-05 -9.5404926e-06 1.0818376e-05)
(0.00012251402 6.7701071e-06 2.2297439e-05)
(0.00013305303 8.6634778e-07 2.9737836e-05)
(6.8950405e-05 -7.6409372e-06 1.2026932e-05)
(7.3934544e-05 -6.3453022e-07 1.560354e-05)
(7.2830467e-05 -2.3179868e-06 1.5679449e-05)
(7.8307272e-05 -3.880287e-06 1.7460431e-05)
(7.4135546e-05 1.8634379e-06 1.7130533e-05)
(6.4914328e-05 -7.6140444e-06 1.0820286e-05)
(6.6566548e-05 -4.7483491e-06 1.519246e-05)
(6.6074148e-05 -4.5897137e-06 1.2780009e-05)
(0.00013115386 3.7758854e-06 2.1274639e-05)
(0.00012128428 8.5757851e-06 2.8586311e-05)
(0.00011842418 4.0895305e-06 2.0570991e-05)
(7.4334015e-05 -3.7497947e-06 1.644283e-05)
(7.9176486e-05 -1.5459981e-06 1.8466171e-05)
(0.00012056849 1.8505354e-06 1.9234815e-05)
(6.9209808e-05 -4.0129301e-06 1.5530321e-05)
(7.506653e-05 -3.1286575e-06 1.724123e-05)
(7.9895366e-05 -1.1082935e-05 1.0166376e-05)
(0.00013754675 -2.6760031e-05 2.9545367e-05)
(8.9358259e-05 9.803362e-06 1.9720448e-05)
(8.5642769e-05 -1.1292183e-06 1.9719491e-05)
(8.9139975e-05 -1.8082055e-05 1.4176363e-05)
(7.2535333e-05 -1.1854399e-06 1.5965149e-05)
(7.585747e-05 -1.9305413e-06 1.8533429e-05)
(0.00011811809 2.116978e-06 2.8330656e-05)
(6.860817e-05 -1.2290846e-05 8.0805225e-06)
(9.2065134e-05 -3.1223243e-06 2.3674342e-05)
(0.00012425382 8.9799312e-06 2.9665428e-05)
(9.9983859e-05 7.2387239e-07 2.1399062e-05)
(8.4325764e-05 -1.3581033e-05 1.1663664e-05)
(0.00011301155 2.0848703e-06 2.4844644e-05)
(0.00010688767 -4.1306053e-06 2.2780835e-05)
(0.00012137583 7.3300692e-06 3.0256431e-05)
(9.1856538e-05 5.7344769e-07 1.9313704e-05)
(9.1120592e-05 -2.9917584e-06 1.8968659e-05)
(0.00012077512 1.1342976e-05 2.4709652e-05)
(0.00012539227 1.2735198e-05 2.5616629e-05)
(0.00012286182 5.7790699e-06 2.3136645e-05)
(0.0001305577 3.8794737e-06 2.9737504e-05)
(0.00012016933 5.4888945e-06 2.9502548e-05)
(0.00012551839 8.9878614e-06 2.8578941e-05)
(0.00011502606 6.6462629e-06 2.8991718e-05)
(8.7979384e-05 2.7944027e-06 1.9981537e-05)
(0.00011727074 1.1451668e-05 2.8345934e-05)
(0.00012748009 1.2358423e-05 3.0709042e-05)
(0.00011393275 4.8988964e-06 2.7400524e-05)
(9.6587114e-05 3.8107751e-07 1.3756857e-05)
(0.00013789373 1.1110268e-05 3.5526144e-05)
(0.00013675587 1.527196e-05 3.1638179e-05)
(7.2829935e-05 -7.8672072e-06 1.3232607e-05)
(0.00014088258 -3.2133467e-05 5.4819389e-05)
(7.651771e-05 -1.3338961e-05 1.5032199e-05)
(0.00013497582 1.6034564e-05 3.8376323e-05)
(9.8054909e-05 2.5275829e-06 2.2195436e-05)
(9.5587791e-05 1.1984044e-05 5.9017136e-06)
(9.5702247e-05 1.7893579e-05 5.1259453e-06)
(0.00010484509 2.5327983e-06 2.2845492e-05)
(0.00012229419 1.2691581e-05 3.4722827e-05)
(0.0001362285 3.0632002e-05 5.6686194e-05)
(9.6203703e-05 -1.5631821e-07 2.2332195e-05)
(0.0001425448 1.3663606e-05 4.2797859e-05)
(0.00012653039 1.6114928e-05 4.0025802e-05)
(0.00010459817 1.3430677e-05 9.1889406e-06)
(7.2044199e-05 -7.6485956e-06 1.2728492e-05)
(9.3747851e-05 2.3324142e-05 5.0076849e-06)
(0.00012224595 1.493337e-05 3.74586e-05)
(0.00011340056 1.3545436e-05 3.6631181e-05)
(0.00012605316 4.4817724e-06 3.0973214e-05)
(5.8589135e-05 -5.6626153e-06 1.3209954e-05)
(6.7114935e-05 -9.131229e-06 1.4734023e-05)
(0.00013005575 1.1689733e-05 4.0223147e-05)
(0.00011443583 1.0299313e-05 3.2633019e-05)
(0.00012040179 9.3793194e-06 2.326734e-05)
(9.5298853e-05 -5.0204262e-06 2.3126831e-05)
(6.8875153e-05 -1.3215747e-05 9.2701673e-06)
(0.00012505298 -5.2945846e-07 2.008975e-05)
(0.0001246004 9.7045415e-06 2.7898271e-05)
(0.00013167667 1.6310039e-05 3.4565191e-05)
(0.00011938898 1.0649108e-05 3.0712051e-05)
(8.9605837e-05 -5.6346669e-07 2.1310316e-05)
(0.000109716 6.3006007e-06 2.8382178e-05)
(0.00013532423 1.4479054e-05 3.7345056e-05)
(0.00012202528 1.1431753e-05 3.1239751e-05)
(6.8980257e-05 -1.6675836e-05 1.0701555e-05)
(8.0325144e-05 1.9363697e-06 1.9641885e-05)
(0.00014066544 1.4254514e-05 4.1344638e-05)
(7.5791094e-05 -5.2164702e-06 1.7507938e-05)
(0.0001326607 1.4608689e-05 4.3740877e-05)
(0.00011226467 3.7086619e-06 2.7760675e-05)
(0.00010709995 4.8832253e-06 2.6529259e-05)
(0.00010982986 1.022679e-05 2.7800273e-05)
(0.00010138269 1.7936279e-06 2.5540564e-05)
(0.00012385544 7.4950844e-06 2.1771306e-05)
(7.7449149e-05 -3.6104058e-06 2.0413165e-05)
(0.00011252853 7.6123816e-06 3.0220037e-05)
(9.2452725e-05 -1.504372e-07 2.2051557e-05)
(9.5969827e-05 -2.4291173e-06 1.3461719e-05)
(0.00011508111 1.4317161e-05 3.9970176e-05)
(0.00013589734 1.0839192e-05 3.4723783e-05)
(9.4220177e-05 6.4179312e-06 2.3725403e-05)
(9.2536827e-05 3.1004413e-06 9.7260347e-06)
(9.5865645e-05 7.683181e-06 2.6401129e-05)
(0.00012761084 1.4807448e-05 4.1900943e-05)
(0.00011272447 1.2965209e-05 3.5272926e-05)
(0.00012790088 1.6023448e-05 3.7398381e-05)
(0.00013198341 1.7451174e-05 4.6351932e-05)
(7.3013476e-05 -1.0780976e-05 1.1995823e-05)
(8.8598065e-05 -6.7970924e-06 2.2517649e-05)
(7.8145375e-05 -1.826719e-05 1.6163103e-05)
(0.00012095908 1.5505161e-05 4.4259674e-05)
(0.00013016819 1.2255421e-05 4.2128005e-05)
(0.00011951442 1.1865686e-05 4.0989581e-05)
(6.5181387e-05 -6.401198e-06 1.3990615e-05)
(9.7704956e-05 1.840941e-06 2.3336448e-05)
(0.00012248781 2.2721079e-06 2.8869281e-05)
(7.5058843e-05 -1.0978801e-05 1.7031847e-05)
(8.6424883e-05 2.0497616e-05 -1.3669749e-05)
(0.00010405549 7.911192e-06 3.0749828e-05)
(9.9026077e-05 1.8694685e-05 -1.7583156e-05)
(7.7555007e-05 -7.168e-06 2.0310695e-05)
(0.00012570787 1.335438e-05 2.8732321e-05)
(7.3637411e-05 3.3470349e-07 1.8745718e-05)
(0.0001334148 1.4622922e-05 3.5115823e-05)
(9.3912797e-05 1.3653553e-06 2.2009491e-05)
(9.6673671e-05 -1.0612201e-06 2.2658461e-05)
(8.2629799e-05 -1.5231712e-06 2.1679018e-05)
(8.5202672e-05 -6.8486682e-07 2.254695e-05)
(7.474981e-05 -1.6400433e-05 1.4009643e-05)
(0.00012803004 1.5029266e-05 3.2269072e-05)
(9.4865606e-05 -9.9115698e-07 2.5407155e-05)
(0.00014595664 -3.4999369e-05 4.5183752e-05)
(8.2958431e-05 3.6979429e-06 2.2781863e-05)
(0.00013205007 3.4439181e-05 4.9324257e-05)
(9.3917358e-05 3.8036141e-06 1.4571928e-05)
(0.00011481437 -5.8554264e-07 1.5379037e-05)
(5.962208e-05 -6.9695783e-06 1.2110113e-05)
(7.2406777e-05 -2.6212303e-06 1.7001769e-05)
(7.2931481e-05 -9.7619651e-06 1.6128126e-05)
(6.9046644e-05 -4.4836501e-06 1.5155982e-05)
(0.00012011506 9.6960457e-06 3.1286822e-05)
(0.00012765114 5.4481132e-06 3.624511e-05)
(7.5933414e-05 -1.611779e-06 1.8279109e-05)
(0.00013868802 1.9572179e-05 3.6431343e-05)
(7.6034071e-05 3.0203952e-06 2.0058113e-05)
(0.00010911979 -3.4492236e-06 1.5907413e-05)
(9.6513155e-05 2.9913192e-06 2.5865159e-05)
(0.00014012192 -1.0392549e-05 2.7664243e-05)
(9.7749461e-05 5.4768793e-06 2.5811048e-05)
(7.5759503e-05 3.0085824e-06 2.3110342e-05)
(0.00011554139 -9.1641593e-06 1.8015062e-05)
(8.8309025e-05 4.8110941e-06 2.6241649e-05)
(8.7141917e-05 -1.2673593e-06 2.2713172e-05)
(9.8474636e-05 4.5058783e-06 2.9147741e-05)
(7.9183991e-05 -3.3812125e-06 2.1080565e-05)
(9.470965e-05 2.3386661e-06 2.720506e-05)
(6.5359252e-05 -6.7677731e-06 1.3417255e-05)
(6.3466067e-05 -6.5911658e-06 1.3693233e-05)
(5.8458793e-05 -9.5335816e-06 1.4413441e-05)
(9.2596856e-05 -5.0308749e-06 2.5586649e-05)
(9.9211081e-05 5.912324e-06 2.7766942e-05)
(0.00010386111 -6.5986729e-08 2.7170234e-05)
(6.8794197e-06 -1.1110402e-05 -4.6752987e-06)
(9.7322839e-05 5.5931621e-06 2.7920967e-05)
(8.8203534e-05 3.6193685e-06 2.7699995e-05)
(9.9118902e-05 5.2520269e-06 3.111653e-05)
(8.9299853e-05 8.2704485e-06 2.8756e-05)
(0.00010377589 2.9315726e-06 3.0102788e-05)
(9.5667157e-05 6.9183665e-06 3.2392024e-05)
(9.8462567e-05 6.2843432e-06 3.0732452e-05)
(8.9054181e-05 8.19042e-06 2.9964878e-05)
(8.4197867e-05 2.233311e-05 -1.178066e-05)
(7.9725825e-05 1.8880593e-05 -1.1653174e-05)
(0.00014436818 -2.3992337e-05 3.2499775e-05)
(7.9003602e-05 -2.0688681e-05 -1.5801637e-06)
(7.7092476e-05 1.0573957e-05 5.5095768e-06)
(8.2872941e-05 -1.9684745e-05 -2.0909888e-06)
(9.4474846e-05 1.1418682e-05 7.7566995e-06)
(0.00010142156 9.5589096e-06 8.7025725e-06)
(7.8513161e-05 1.5206474e-05 5.2350324e-06)
(7.6301869e-05 1.2263161e-05 4.699668e-06)
(0.00010639694 1.4968024e-05 1.154312e-05)
(8.7860285e-05 1.6081145e-05 8.8572571e-06)
(8.255598e-05 1.8948149e-05 7.6729488e-06)
(0.00010133663 9.678271e-06 9.9355813e-06)
(8.2224197e-05 1.3847609e-05 7.5951284e-06)
(8.5547431e-05 1.0188173e-05 8.6118704e-06)
(7.9631878e-05 2.601239e-05 6.9005481e-06)
(7.8945287e-05 1.6860162e-05 4.25153e-06)
(7.5036858e-05 2.1329219e-05 5.9381204e-06)
(8.0414189e-05 1.9697635e-05 6.2791194e-06)
(8.4134611e-05 1.7309161e-05 1.0527031e-05)
(6.860193e-05 8.374953e-06 7.701471e-06)
(6.1420822e-05 -2.7560181e-05 5.9376348e-08)
(9.2835444e-05 4.4102994e-06 9.8558485e-06)
(7.9681586e-05 1.4538144e-05 7.6132537e-06)
(4.9217173e-05 -2.4658285e-05 1.0330788e-06)
(6.6183215e-05 1.0510585e-05 6.3588889e-06)
(7.1503304e-05 -2.2076065e-05 -2.0426443e-06)
(0.00010592569 6.6685789e-06 1.0875668e-05)
(8.780351e-05 8.1853165e-06 1.0628474e-05)
(8.6999081e-05 7.4815794e-06 1.1641644e-05)
(9.4137769e-05 2.3067229e-06 1.2095666e-05)
(7.9239957e-05 1.6062259e-05 1.0195076e-05)
(0.000103852 4.3641174e-06 1.4179773e-05)
(8.5873517e-05 6.5962652e-06 1.0922565e-05)
(8.4832926e-05 1.0845007e-05 1.011545e-05)
(7.4355796e-05 1.4644316e-05 1.0882114e-05)
(7.0457016e-05 1.6501317e-05 7.508548e-06)
(9.1239722e-05 9.9306467e-06 1.2915488e-05)
(8.6896938e-05 6.7579182e-06 1.0874993e-05)
(8.5400327e-05 2.5256282e-06 1.1925427e-05)
(0.00010378007 7.7495026e-06 1.511275e-05)
(7.2041962e-05 1.2469729e-05 7.75487e-06)
(7.1837265e-05 1.0946846e-05 1.0150285e-05)
(7.5012682e-05 5.7379543e-06 7.8892642e-06)
(8.6872783e-05 5.579032e-06 1.1902039e-05)
(8.3825936e-05 1.7601686e-05 1.1256232e-05)
(9.996132e-05 3.8890969e-06 1.5430715e-05)
(0.00010472828 9.0056814e-06 1.5867731e-05)
(8.895083e-05 3.9404188e-06 1.3916835e-05)
(0.00011337822 1.1214306e-05 1.8582727e-05)
(-9.0762562e-06 -2.6121626e-06 -3.1907891e-06)
(0.00015274626 -2.5307526e-05 8.1143563e-05)
(0.00014940119 -1.8038056e-05 7.8919593e-05)
(0.00011597991 6.183547e-07 1.7964259e-05)
(0.00011787102 2.8830518e-06 1.5454394e-05)
(8.0762553e-05 1.0848167e-05 9.0387094e-06)
(0.00015863625 -1.3960675e-05 9.6126803e-05)
(9.0518795e-05 1.2819068e-05 1.4527095e-05)
(8.2556855e-05 1.026542e-05 1.1720785e-05)
(0.0001106411 -8.210895e-07 1.7749839e-05)
(0.00010872862 1.0813536e-05 1.8273431e-05)
(8.8069331e-05 9.2885238e-06 1.5381735e-05)
(0.00010459286 4.5017156e-06 1.6389804e-05)
(0.00011655861 1.8690147e-06 1.8872312e-05)
(0.00010229665 3.4996591e-06 1.7918645e-05)
(9.5332195e-05 5.6809691e-06 1.6385457e-05)
(0.00011103867 3.2454635e-06 1.8228442e-05)
(8.4026156e-05 8.4126763e-06 1.2609998e-05)
(0.00010529194 -5.0812909e-07 1.7524034e-05)
(7.9947649e-05 2.7592885e-06 1.3044833e-05)
(9.0475188e-05 5.6602471e-06 1.5297659e-05)
(9.327245e-05 6.5754399e-06 1.7781116e-05)
(9.1864056e-05 1.9988571e-06 1.6903833e-05)
(8.5651031e-05 5.2762342e-06 1.5616664e-05)
(8.7588764e-05 1.1260819e-05 1.5973256e-05)
(0.0001028436 3.9851045e-06 1.9531638e-05)
(8.1423702e-05 9.7256288e-06 1.2335556e-05)
(0.00014149503 -1.5339366e-05 8.1613186e-05)
(0.00011053477 -4.561361e-07 2.157344e-05)
(0.00010332595 1.1844791e-05 2.1596597e-05)
(8.2292862e-05 7.2538079e-06 1.5659918e-05)
(9.7378687e-05 -1.8329886e-07 1.829262e-05)
(9.8716287e-05 6.4293179e-06 1.8577703e-05)
(0.00014497493 2.5518186e-05 7.7783782e-05)
(0.00011595649 -2.0721024e-06 2.3062061e-05)
(9.0803316e-05 1.083427e-05 1.7979606e-05)
(0.00012399138 3.1455199e-06 2.4222709e-05)
(8.3263431e-05 1.0033071e-06 1.6054651e-05)
(9.8262846e-05 5.3572359e-06 1.8448131e-05)
(0.00010404042 4.3171289e-06 1.9892846e-05)
(0.0001063377 -5.7581386e-06 2.290086e-05)
(9.4259308e-05 4.762535e-06 1.8362421e-05)
(0.00011309161 -2.7791816e-06 1.5554243e-05)
(9.7988351e-05 2.8774253e-07 1.8764691e-05)
(8.3714086e-05 3.7806344e-06 1.6581943e-05)
(0.00010645197 -3.0188898e-06 2.3420453e-05)
(7.4217153e-05 2.1295832e-05 1.2941901e-06)
(8.3961838e-05 5.0466096e-06 1.6959176e-05)
(9.3761868e-05 -8.6510267e-07 1.9408275e-05)
(8.9925063e-05 2.6660021e-06 1.8161525e-05)
(0.00012335506 -1.7045647e-06 1.8562665e-05)
(7.2626446e-05 5.6351102e-06 1.444337e-05)
(7.3337266e-05 6.4696452e-06 1.3637503e-05)
(0.00011831503 -3.1322238e-07 2.1957744e-05)
(7.8977792e-05 2.047659e-06 1.5350525e-05)
(8.5214515e-05 1.0527177e-05 1.8235572e-05)
(1.7903179e-06 -1.0818884e-05 1.3722373e-07)
(8.3932144e-05 4.776112e-06 1.6813189e-05)
(0.00010999407 -3.7478466e-06 2.0981246e-05)
(8.3189052e-05 9.5751327e-06 1.7281395e-05)
(0.00010894495 -6.1105223e-06 2.6026301e-05)
(0.00012218431 -3.3091499e-06 2.4402335e-05)
(0.00012564602 -1.5230357e-05 2.6803699e-05)
(4.0758604e-05 -2.4125164e-05 -4.5152056e-06)
(8.5467324e-05 6.5727401e-06 1.9364268e-05)
(7.7904268e-05 5.1673963e-06 1.6426045e-05)
(8.0313376e-05 1.6182201e-06 1.6497507e-05)
(0.0001276033 -1.049193e-05 2.2550242e-05)
(9.0395788e-05 8.4355799e-07 2.0011357e-05)
(7.7397023e-05 8.1457278e-06 1.397046e-05)
(6.1826581e-05 8.4172023e-06 1.588969e-05)
(0.0001190076 -8.8807848e-06 2.7653437e-05)
(7.683072e-05 3.1657534e-06 1.3479838e-05)
(0.00010208987 -3.9786619e-06 1.7948699e-05)
(7.6592636e-05 5.0283859e-07 1.6362806e-05)
(2.7074135e-05 -2.2516568e-05 -1.6542763e-06)
(6.8224557e-05 2.6762603e-06 1.5205469e-05)
(8.5716858e-05 4.9910822e-06 1.8836207e-05)
(0.00012904996 -9.9483282e-07 2.3916571e-05)
(0.00012350973 -6.9621601e-06 2.5853728e-05)
(0.00011298939 -3.7037033e-06 2.2718053e-05)
(5.7828489e-05 -5.227844e-06 1.0888768e-05)
(8.7444707e-05 7.6418251e-06 1.9819789e-05)
(8.5250217e-05 1.0295475e-05 1.9566829e-05)
(0.00013531485 1.9364923e-05 4.6913323e-05)
(8.1101424e-05 2.3260938e-06 1.82309e-05)
(0.00013600896 1.368538e-05 3.8601487e-05)
(1.9180546e-05 -1.9052212e-05 1.28242e-06)
(0.00010585916 -7.1155351e-06 2.597485e-05)
(9.0068072e-05 2.1190933e-06 2.1756113e-05)
(0.00010805329 -6.2783732e-06 2.7104169e-05)
(9.5983984e-05 -4.0650043e-06 2.0250718e-05)
(9.3108816e-05 6.5170113e-07 2.0739641e-05)
(1.0320335e-05 -1.3939341e-05 9.6941638e-07)
(1.4406435e-06 -5.5337011e-06 -9.2239307e-07)
(0.00013369943 -1.4493419e-05 2.8521229e-05)
(0.00010703927 -1.6594201e-06 1.7152162e-05)
(0.00012547654 -1.0488165e-05 3.0763155e-05)
(9.0819418e-05 4.5416084e-07 1.8792339e-05)
(0.00011450569 -8.0101698e-06 2.3923861e-05)
(0.00010316591 -6.018368e-06 2.0076169e-05)
(7.8516798e-05 1.5576398e-06 1.6511241e-05)
(0.00012716769 -7.3112971e-06 2.7721328e-05)
(0.00011405411 -1.0759209e-05 2.5048334e-05)
(0.00012990855 -5.5701567e-06 3.1075278e-05)
(7.4908748e-05 -1.891685e-05 2.5176858e-06)
(9.6253791e-05 5.4479789e-06 2.1396216e-05)
(0.00013009384 -1.0870475e-05 2.9585786e-05)
(0.00012902177 -1.0381433e-05 2.7012745e-05)
(0.00011597358 -5.2521702e-06 2.8591224e-05)
(0.00011234856 -4.8422706e-06 2.7627813e-05)
(0.00010970915 -9.6711335e-06 2.8556629e-05)
(7.7497928e-05 1.3169828e-05 1.265794e-05)
(0.0001305562 -1.079758e-05 3.3831531e-05)
(9.5052222e-05 -5.1677599e-06 2.2020796e-05)
(8.1388122e-05 1.9954114e-05 1.2676464e-05)
(5.9890373e-05 -9.2227511e-06 1.3396859e-05)
(8.0899664e-05 1.3908717e-05 1.3195481e-05)
(7.6082118e-05 1.1432638e-05 -2.913001e-07)
(7.7073462e-05 -2.2630445e-05 3.2664041e-06)
(0.00013549242 -9.5045455e-06 3.5324881e-05)
(0.00012846607 -1.2561709e-05 3.4814515e-05)
(9.347009e-05 -3.0049762e-06 2.0838604e-05)
(0.0001188239 -1.2791302e-05 3.6972211e-05)
(9.9165844e-05 1.929714e-05 -4.8944969e-07)
(9.93667e-05 2.9110028e-07 2.1103551e-05)
(0.00012439314 -1.4965517e-05 3.9118473e-05)
(7.6673249e-05 8.8790277e-06 1.1441688e-05)
(8.172967e-05 1.3360915e-05 1.4361641e-05)
(0.00011765694 -8.2754875e-06 3.363784e-05)
(0.00011963417 -1.2136952e-05 3.7495688e-05)
(0.00010835832 -1.2111434e-05 2.9339341e-05)
(6.8020065e-05 8.3957724e-06 1.1877225e-05)
(6.4947453e-05 -1.1899091e-05 1.0443094e-05)
(7.480578e-05 -1.6847834e-05 1.3292035e-05)
(0.0001138156 -1.5586263e-05 3.7614496e-05)
(0.00011515397 -8.8420814e-06 3.0815435e-05)
(8.980121e-05 5.7416754e-06 2.6563597e-05)
(8.3101154e-05 -8.9653591e-06 2.4943666e-05)
(8.2108555e-05 -8.1011288e-06 2.0316603e-05)
(0.00012477146 -8.9423955e-06 2.406582e-05)
(8.229888e-05 1.3337879e-05 1.6154592e-05)
(0.00013396699 -6.3821083e-06 2.5781153e-05)
(0.00012778269 -1.1688027e-05 3.1718211e-05)
(0.00012055039 -1.7700915e-05 4.2238485e-05)
(0.00011948572 -1.2620934e-05 3.2405287e-05)
(0.00011606427 -3.5394931e-06 2.988971e-05)
(0.00011349914 -1.4687363e-05 3.7762593e-05)
(0.0001085358 -5.0071345e-06 2.549702e-05)
(9.8599507e-05 -1.1802834e-06 2.2905105e-05)
(0.00011183493 -1.1877025e-05 3.0662433e-05)
(0.00011782552 -1.4873589e-05 3.2847273e-05)
(0.00012819655 -1.494056e-05 4.0965606e-05)
(7.3432205e-05 1.0400143e-05 1.6125157e-05)
(0.00012809335 -6.8996924e-06 3.6650237e-05)
(7.5061864e-05 6.9357372e-06 1.5156418e-05)
(0.00011041035 -1.0099075e-05 3.5682587e-05)
(9.9739588e-05 -1.3611974e-05 3.6883242e-05)
(0.00012404822 -1.428486e-05 4.4813931e-05)
(0.00014619852 -2.0212747e-05 5.1227186e-05)
(0.00012467539 -4.3818667e-06 3.418798e-05)
(0.00011593539 -1.1239013e-05 3.2653776e-05)
(0.00011134581 -7.7673011e-06 2.9573939e-05)
(6.5528701e-05 9.6591498e-06 1.5628372e-05)
(7.0962801e-05 4.5484267e-06 1.5405924e-05)
(7.1274438e-05 2.9811052e-06 1.5224713e-05)
(0.00012001324 -7.7089949e-06 3.4767717e-05)
(8.3886789e-05 -1.9957737e-06 1.9076686e-05)
(0.00010700748 9.0010251e-06 3.5328117e-05)
(7.8785768e-05 2.0818696e-07 1.9508833e-05)
(0.00011648563 -1.5766214e-05 4.5848269e-05)
(0.00015539593 -2.3595977e-05 5.646829e-05)
(0.00014005592 -1.9516389e-05 5.3194404e-05)
(0.0001175395 -1.4075667e-05 2.8520434e-05)
(8.0971924e-05 6.2911485e-06 1.7701198e-05)
(8.6217457e-05 3.5375161e-07 2.1271599e-05)
(0.00011543105 -1.6791115e-05 4.7320103e-05)
(0.00013291756 -1.5594034e-05 4.2612937e-05)
(0.00011470638 -1.3662323e-05 4.3659144e-05)
(0.00010901692 -1.2619422e-05 3.7814445e-05)
(6.2785106e-05 -2.2955491e-05 -1.1853626e-06)
(0.00016128285 -1.8956301e-05 5.4885928e-05)
(0.00011835422 -8.8942564e-06 3.5323245e-05)
(0.00014390992 -2.0302522e-05 5.8694854e-05)
(9.5542386e-05 -5.6179745e-08 2.1664853e-05)
(6.5889835e-05 -2.5112039e-05 9.1725142e-07)
(6.1160953e-05 -3.395938e-05 -2.0330834e-06)
(0.00011147917 -1.135212e-05 4.3446692e-05)
(7.2300443e-05 1.2298603e-05 9.3062605e-06)
(7.8967016e-05 5.2049232e-06 1.9684884e-05)
(0.00012418309 -1.1555904e-05 4.4682227e-05)
(0.00014135174 -1.6982322e-05 5.7251758e-05)
(0.00011699635 1.6017981e-06 1.723444e-05)
(0.00014945537 -1.6419183e-05 5.7994484e-05)
(7.8015826e-05 1.5752349e-05 1.157386e-05)
(0.00013193054 -1.5060333e-05 3.3573338e-05)
(0.00012500913 -1.0487884e-05 4.0232079e-05)
(0.0001353656 -1.9670582e-05 4.8253566e-05)
(8.8785836e-05 -1.4837539e-06 2.2454033e-05)
(7.1787896e-05 -1.3276295e-05 1.2129311e-05)
(0.00014315964 -1.8960325e-05 5.7467112e-05)
(0.00014746712 -1.8326062e-05 5.6307412e-05)
(0.00013428669 -1.638186e-05 3.6978371e-05)
(0.0001179264 -1.4625917e-05 4.7316027e-05)
(8.4722716e-05 2.0875447e-05 2.1785096e-06)
(0.00013488735 -2.0559972e-05 3.1207257e-05)
(6.7157261e-05 -1.8374376e-05 1.0154827e-05)
(0.00014064043 -1.8417824e-05 6.2558761e-05)
(0.00012871905 -1.7164009e-05 5.5150852e-05)
(7.1464553e-06 -1.5136216e-05 -1.3596764e-07)
(9.8505263e-05 -3.9984237e-06 2.3490876e-05)
(0.00012495551 -1.9167456e-05 5.8396393e-05)
(0.00011868236 -1.7713281e-05 5.421577e-05)
(7.0410056e-05 6.825777e-06 1.2896877e-05)
(0.00010290493 -2.0764513e-06 2.7079157e-05)
(0.00015247832 -1.6575193e-05 5.7212955e-05)
(0.00011908505 -6.0413015e-06 3.2356403e-05)
(0.00014469132 -2.0077663e-05 6.3619795e-05)