/*--------------------------------*- C++ -*----------------------------------*\
  =========                 |
  \\      /  F ield         | OpenFOAM: The Open Source CFD Toolbox
   \\    /   O peration     | Website:  https://openfoam.org
    \\  /    A nd           | Version:  11
     \\/     M anipulation  |
\*---------------------------------------------------------------------------*/
FoamFile
{
    format      ascii;
    class       volVectorField;
    location    "10000";
    object      wallShearStress;
}
// * * * * * * * * * * * * * * * * * * * * * * * * * * * * * * * * * * * * * //

dimensions      [0 2 -2 0 0 0 0];

internalField   uniform (0 0 0);

boundaryField
{
    wall-fluid_domain
    {
        type            calculated;
        value           nonuniform List<vector> 
50990
(
(0.00034581855 -4.4267831e-05 4.9509694e-05)
(0.00034954945 -5.1533955e-05 5.6897867e-05)
(0.00018196982 -3.4240735e-05 4.9693815e-05)
(0.00030273268 -2.9466197e-06 4.9128469e-05)
(0.00034935482 -4.1913712e-05 5.5446081e-05)
(0.00040178042 3.0682072e-06 5.6503711e-05)
(0.00033775659 -4.7060602e-05 4.9735837e-05)
(0.00032349923 -3.1733508e-05 4.3148891e-05)
(0.00036767756 -8.3899987e-06 6.1350861e-05)
(0.00044407204 -2.9667154e-05 6.239382e-05)
(0.00031564964 -3.4989149e-05 4.1555318e-05)
(0.00042763753 -3.3946619e-05 5.7312395e-05)
(0.00016989516 -3.5882356e-05 5.0920446e-05)
(0.0003482838 -4.6767593e-05 5.3341732e-05)
(0.00040554357 -2.7656581e-05 7.3211039e-05)
(0.00042598059 -1.9854068e-06 4.660633e-05)
(0.00043845256 -2.057674e-05 6.2312458e-05)
(0.00034457716 -4.2833428e-05 5.3696491e-05)
(0.00036366835 4.6189144e-06 3.4298268e-05)
(0.00032301411 9.1430819e-06 3.5835518e-05)
(0.00028866286 3.1094045e-05 4.7791909e-05)
(0.00040262191 8.4144226e-06 5.9834658e-05)
(0.00044125404 -1.424872e-05 6.9102347e-05)
(0.00043594684 -9.4231766e-06 5.9163182e-05)
(0.00032191241 -5.1546779e-05 5.0012172e-05)
(0.00042546907 2.1658697e-05 7.0235259e-05)
(0.00030187799 5.4108058e-05 5.1241033e-05)
(0.00039802927 9.1926786e-06 5.8311801e-05)
(0.00029990744 -6.4736719e-05 7.246789e-05)
(0.00030387464 5.2005514e-05 6.4824279e-05)
(0.00039640479 -1.4189237e-05 5.4721421e-05)
(0.00045179071 4.6780498e-05 0.00010179668)
(0.00043723571 7.635182e-07 6.3249612e-05)
(0.00046532354 2.7543319e-05 7.8789311e-05)
(-6.30725e-05 2.8676428e-05 -2.8963641e-05)
(0.00046418441 3.949651e-05 8.8665453e-05)
(0.00039922273 1.2237722e-05 5.9083318e-05)
(0.00041750883 -1.0584077e-05 4.3318988e-05)
(0.0004086002 1.9446193e-05 7.2030165e-05)
(0.0004689284 5.7249286e-05 0.00011934423)
(0.00034522496 1.5139579e-06 4.579297e-05)
(0.0004270267 -4.2304453e-05 8.8353487e-05)
(0.0002480185 -5.2023838e-05 7.2080209e-05)
(0.00017202887 -3.2355884e-05 5.1517777e-05)
(0.00029511894 7.9043063e-05 7.2486075e-06)
(0.00039007986 -1.899222e-05 5.7690659e-05)
(0.00039449777 3.3359486e-05 8.7659371e-05)
(0.00039819585 -2.9494762e-05 7.324386e-05)
(0.00031912931 -8.162887e-06 4.079467e-05)
(0.00033112639 -1.1610097e-05 5.1342844e-05)
(0.00026750669 -5.4356102e-05 6.3335722e-05)
(0.00030992922 -6.4769203e-05 6.0110565e-05)
(3.5427411e-05 6.2971292e-06 2.2135517e-05)
(2.7889844e-05 1.2933576e-05 1.1641684e-05)
(0.00028761709 -5.2239165e-05 5.7709096e-05)
(-2.429808e-05 1.6668761e-05 2.8557585e-06)
(0.00037086266 -2.8814722e-05 7.163736e-05)
(0.00035181973 -5.3273547e-05 5.3561134e-05)
(0.00027081884 -5.7050244e-05 7.6485178e-05)
(0.00031250977 3.4495129e-05 5.6763778e-05)
(0.00027084558 -5.49007e-05 7.4000091e-05)
(0.00024396676 -4.2348482e-05 6.5917689e-05)
(0.00023842876 -5.2639548e-05 6.7808322e-05)
(0.00026772577 -5.4815223e-05 6.0407848e-05)
(0.00039352595 -5.3324616e-05 5.1587094e-05)
(0.00012781199 -2.3018382e-05 3.6700056e-05)
(0.00040674339 -4.1249995e-05 5.3497727e-05)
(0.0001792204 -3.9064028e-05 5.9187366e-05)
(0.00042243467 -4.5260085e-05 0.00024083783)
(0.00032551085 -4.6293149e-05 4.6365709e-05)
(0.00024761875 -5.9091284e-05 7.5138458e-05)
(0.00017519932 -3.4332556e-05 5.1197521e-05)
(0.00012047738 -1.8933908e-05 3.2174831e-05)
(0.00036664807 -2.27681e-05 5.2884373e-05)
(0.0001478723 -3.0295638e-05 4.82082e-05)
(0.00026750354 -5.295601e-05 6.8055411e-05)
(0.00015670076 -3.1163188e-05 5.0340775e-05)
(0.00010270615 -2.0737067e-05 2.3335409e-05)
(0.00012935427 -2.7098192e-05 3.7632707e-05)
(0.00016940776 -3.4022764e-05 5.7079603e-05)
(0.0002436485 -4.9960104e-05 7.0332642e-05)
(0.00010897194 -2.2242541e-05 2.6211988e-05)
(0.00012482593 -2.5202835e-05 3.8784569e-05)
(0.0002580762 -5.0898014e-05 5.9021768e-05)
(0.00014165219 -3.1146138e-05 4.6453444e-05)
(0.00018614837 -4.3347601e-05 6.202001e-05)
(0.00021591543 -4.4327838e-05 5.7964103e-05)
(0.00027486159 -5.8640822e-05 6.1113723e-05)
(0.00013037034 -2.7886991e-05 4.5526832e-05)
(0.00011476187 -2.8559501e-05 3.7585689e-05)
(0.00018329661 -4.0172991e-05 5.9684156e-05)
(0.00013592015 -3.2673905e-05 4.8062459e-05)
(0.00011528799 -2.9634122e-05 4.2829834e-05)
(0.00011185886 -2.7869176e-05 3.8015239e-05)
(0.00042646002 -4.8206706e-05 0.00023871988)
(0.0003952711 -4.0435852e-05 0.00022039876)
(0.00029149909 -3.4437243e-05 0.00017091978)
(0.0003508041 -5.5973228e-05 5.4314848e-05)
(0.00010005649 -2.3423389e-05 2.0882542e-05)
(0.00040048271 -4.4404344e-05 4.9891063e-05)
(0.00031488709 -4.9861975e-05 4.3084501e-05)
(0.00034732536 -2.3716556e-05 4.6954822e-05)
(9.0923918e-05 -2.2516853e-05 2.7035025e-05)
(0.00030829942 -5.2583412e-05 4.365103e-05)
(0.0003024914 4.6180315e-05 6.1589315e-05)
(9.7143696e-05 -2.1891184e-05 3.8280412e-05)
(8.738954e-05 -2.3142967e-05 2.871065e-05)
(9.6102406e-05 -2.521588e-05 4.0014492e-05)
(8.7642631e-05 -1.9579534e-05 3.5659827e-05)
(0.00036340562 -1.4775758e-05 5.2443935e-05)
(0.00032969644 -4.7015705e-05 4.0536337e-05)
(0.00037319337 -4.3175329e-05 4.4536284e-05)
(0.00039134901 -3.8492821e-05 5.121644e-05)
(0.00033733825 -6.2173962e-05 4.8120424e-05)
(0.00032823108 -5.7885805e-05 4.1894882e-05)
(0.00038582546 -3.1963595e-05 5.1836968e-05)
(0.00033868881 -4.8177807e-05 4.4279843e-05)
(0.00032395283 -5.642285e-05 4.1625888e-05)
(0.00034991689 -3.3268503e-05 4.586232e-05)
(0.00033894498 -3.6184734e-05 3.8643075e-05)
(0.00033357182 -5.0217e-05 3.7917021e-05)
(0.00033224515 -6.4679516e-05 4.1514696e-05)
(0.00024107329 -4.7728028e-05 3.2752463e-05)
(0.00030023467 -6.6696432e-05 4.0983605e-05)
(0.00037326639 -8.2101641e-05 4.9170568e-05)
(0.0003502376 -6.510531e-05 3.9156564e-05)
(0.00033548876 -4.2629143e-05 3.654338e-05)
(0.0003784659 -3.3113746e-05 4.7860829e-05)
(0.00037382198 -7.7502587e-05 4.3718892e-05)
(0.00035099735 -6.2156627e-05 3.937242e-05)
(0.00038278501 -2.1479698e-05 5.1497211e-05)
(0.00033614081 -3.5634259e-05 3.8812755e-05)
(0.00038328045 -2.0785643e-05 5.0241995e-05)
(0.00037221792 -2.9745704e-05 4.7266609e-05)
(0.0004164769 1.6286683e-05 6.3556072e-05)
(0.00034712175 -2.1219911e-05 4.092533e-05)
(0.00034611327 -5.9014491e-05 3.6622249e-05)
(0.00038505863 -1.4077418e-05 5.3518538e-05)
(0.00037086813 -5.0932803e-05 3.8833454e-05)
(0.00034609986 -5.0767473e-05 3.3265333e-05)
(0.00028239194 -6.5807546e-05 3.3732781e-05)
(0.00036587762 -3.038812e-05 4.2600927e-05)
(0.00037065772 -3.9857044e-05 3.9006312e-05)
(0.00037786241 -7.7852022e-06 5.228992e-05)
(0.00035044671 -1.795117e-05 4.9429104e-05)
(0.00033076843 -7.9324873e-05 4.0382493e-05)
(0.00041031583 3.5083615e-05 8.1406558e-05)
(0.00028622033 4.8673571e-05 1.1404856e-05)
(0.0002587263 -4.4810537e-05 2.5811986e-05)
(0.00032815302 3.3761037e-05 2.4482608e-05)
(0.00036045965 -4.6350927e-05 3.9951093e-05)
(0.00036369856 -2.1665546e-05 4.4662199e-05)
(0.00024989016 4.8119653e-05 2.3774962e-06)
(0.00033903244 -4.9610605e-05 3.5058428e-05)
(0.00038167031 -1.096719e-05 5.2271678e-05)
(0.00027246986 1.443476e-05 2.7420998e-05)
(0.00029972378 -2.6861331e-05 3.0129741e-05)
(0.00039767551 -1.9532764e-05 5.1084324e-05)
(0.00031864326 -2.2499548e-05 3.8450282e-05)
(0.00039668176 -2.1859371e-06 5.9395339e-05)
(0.00028462267 -5.2788234e-05 3.0148094e-05)
(0.00032026227 -3.9723302e-05 3.5526219e-05)
(0.00031269521 -5.1569125e-05 2.8345943e-05)
(0.00040159026 -5.8940222e-06 6.0200035e-05)
(0.00032041486 -2.2495468e-05 4.1256763e-05)
(0.00037291152 -4.5871501e-05 4.4906151e-05)
(0.00037488435 -3.5866989e-05 4.5907046e-05)
(0.00041535232 5.2960637e-06 6.6237729e-05)
(0.0004012957 -1.5552561e-05 5.4121016e-05)
(0.00039262266 -1.3208741e-05 5.2716696e-05)
(0.0003922102 2.7868731e-06 6.2955543e-05)
(0.0004624058 4.124973e-05 0.00011387745)
(0.00036386718 -3.8694664e-05 4.249327e-05)
(0.00044508846 -8.2038407e-06 6.8482623e-05)
(0.00035448933 -1.180209e-06 5.7443299e-05)
(0.00036148125 -2.6907544e-05 4.7259677e-05)
(0.00044176083 -7.2578397e-05 0.00010661164)
(0.00028545166 -3.0748666e-05 3.4634351e-05)
(0.00035316297 -2.3034877e-05 4.6964685e-05)
(0.0003394565 -5.7760897e-06 4.8039347e-05)
(0.0003649917 -1.689246e-05 5.1810107e-05)
(0.00027890754 -2.6213342e-05 3.2055148e-05)
(0.0003588001 7.5962881e-06 6.101089e-05)
(0.00032503458 -4.1210582e-05 2.851734e-05)
(0.00032387777 -2.4789155e-05 4.3299239e-05)
(0.00030232886 -2.403131e-05 3.7142926e-05)
(0.0004134318 1.5765689e-05 7.6326037e-05)
(0.00034156261 -6.2491303e-07 5.5939094e-05)
(0.00031619342 -2.0736997e-05 4.2302643e-05)
(0.0004095123 -6.5311833e-05 9.4620979e-05)
(0.00032523505 -4.169027e-06 4.8922956e-05)
(0.00036285738 7.9139374e-06 7.0733798e-05)
(0.00031822569 -3.3976994e-05 3.6364481e-05)
(0.00033085238 -9.7350287e-06 5.0591213e-05)
(0.00028186232 7.388875e-05 7.9296529e-06)
(0.00034017949 1.5973185e-05 6.945637e-05)
(0.00029704514 -2.0342629e-05 4.4391735e-05)
(0.00031442782 -2.4898141e-05 3.6228599e-05)
(0.00043073627 2.0590672e-05 9.0163071e-05)
(0.00033450689 -2.6099503e-06 5.4553105e-05)
(0.00032478763 -3.8128768e-06 5.4020889e-05)
(0.00028974457 -1.4514619e-05 4.2518518e-05)
(0.00034284295 -8.9641871e-06 5.5564619e-05)
(0.00039573367 7.7152557e-06 7.1011792e-05)
(0.00032775329 -2.7349586e-06 5.7421797e-05)
(0.00031366442 -2.6454661e-05 3.8469226e-05)
(0.00040327916 -5.7005573e-06 6.0651916e-05)
(0.00027387799 -4.027241e-05 3.3118879e-05)
(0.00041269614 9.2746347e-06 8.024792e-05)
(0.00043325413 1.1898071e-05 7.451262e-05)
(0.0002824095 -1.2281029e-05 4.4436931e-05)
(0.00031206817 -1.6270929e-05 4.3570334e-05)
(0.00044709861 2.3553052e-05 9.9323059e-05)
(0.00034387004 1.5307599e-05 7.5542682e-05)
(0.00031411472 -1.9609629e-05 4.9312133e-05)
(0.00043799855 -1.0294673e-07 6.431401e-05)
(0.00027009604 -1.8947224e-05 3.9502423e-05)
(0.00025406678 -3.8130855e-05 2.4433762e-05)
(0.00043042541 2.1769742e-05 8.1550343e-05)
(0.00045687196 1.7996601e-05 0.00010180125)
(0.00025400437 -3.1165284e-05 2.5997712e-05)
(0.00026443732 -3.9296226e-06 4.6006229e-05)
(0.00027027199 -1.2937044e-05 4.3751643e-05)
(0.00028730884 -1.0414901e-05 5.2483479e-05)
(0.00026884737 -2.6192589e-07 5.0611578e-05)
(0.00023607233 -3.2209249e-05 2.5029953e-05)
(0.00024483916 -1.7481104e-05 4.0878877e-05)
(0.00024623543 -2.0020669e-05 3.5964046e-05)
(0.00043513164 2.4676803e-05 8.2611795e-05)
(0.00041160662 2.8411503e-05 9.319434e-05)
(0.00041633222 1.7134235e-05 7.5419834e-05)
(0.00027917138 -1.2235597e-05 5.2434246e-05)
(0.00028962372 -5.6980683e-06 5.6258739e-05)
(0.00042006095 1.0040822e-05 7.3680121e-05)
(0.00026198005 -1.2443103e-05 5.2225495e-05)
(0.00027836683 -1.0979122e-05 5.4662404e-05)
(0.00030626205 -4.5910466e-05 2.9620072e-05)
(0.00039906633 -6.8284897e-05 0.0001022534)
(0.00030419557 2.1052144e-05 6.4656392e-05)
(0.00030173713 -6.3609982e-07 6.5664608e-05)
(0.00033855233 -6.00903e-05 3.6657741e-05)
(0.00026663675 -5.7430582e-06 5.5488599e-05)
(0.00026726074 -3.7619138e-06 6.2635629e-05)
(0.0004046946 1.8454778e-05 9.389059e-05)
(0.0002753714 -5.5023313e-05 2.4087501e-05)
(0.0003104632 -2.5243036e-06 7.4983723e-05)
(0.00043046062 3.3388761e-05 0.00010382614)
(0.00036898501 4.349833e-06 6.8453408e-05)
(0.00032667114 -5.4801152e-05 2.9019887e-05)
(0.00040212347 1.4438686e-05 8.2540418e-05)
(0.00037886143 -5.7929837e-07 6.9737459e-05)
(0.00041523026 3.1065098e-05 0.00010143271)
(0.00033660742 -9.2754635e-07 5.7762541e-05)
(0.00033508244 -6.7044603e-06 5.8053367e-05)
(0.00042057314 3.3424294e-05 8.7336244e-05)
(0.00041717231 4.2245266e-05 9.443504e-05)
(0.00042219712 2.3589934e-05 8.4734418e-05)
(0.00043767955 2.9230637e-05 0.00010507542)
(0.00039506672 2.9908549e-05 0.00010035209)
(0.00041848268 3.5593067e-05 9.8452936e-05)
(0.00038989156 2.9217876e-05 9.8458638e-05)
(0.00033206637 2.3666736e-06 6.2560134e-05)
(0.00039037927 3.7457435e-05 9.6496463e-05)
(0.00043620272 4.2363965e-05 0.00010710173)
(0.00039685322 2.0983132e-05 8.9319803e-05)
(0.00033528606 7.0855442e-06 5.6773502e-05)
(0.00047052134 4.2758836e-05 0.00012580799)
(0.00045405731 4.3856012e-05 0.00011219954)
(0.00026661396 -3.3491857e-05 3.2101197e-05)
(0.00038010817 -7.8179921e-05 0.00016435437)
(0.00027943726 -3.5642722e-05 3.7279044e-05)
(0.0004670173 5.1966582e-05 0.00013087573)
(0.00035658902 1.0044182e-05 7.0548663e-05)
(0.00029227111 4.137347e-05 1.4202543e-05)
(0.00028385468 5.8698188e-05 6.6941844e-06)
(0.00037811279 1.047406e-05 7.4358179e-05)
(0.00042311893 4.1005978e-05 0.00011657159)
(0.00036074468 7.1989107e-05 0.00016880668)
(0.00035410225 2.568071e-06 6.9352546e-05)
(0.00047112262 5.2226662e-05 0.00014211282)
(0.00041403502 5.3494952e-05 0.00013169232)
(0.00031536033 3.3076778e-05 2.6133964e-05)
(0.00027240737 -3.025304e-05 3.503115e-05)
(0.00028485579 6.9462501e-05 3.7741906e-06)
(0.00041958727 4.6612897e-05 0.00012188608)
(0.00036665279 4.5573362e-05 0.00011875642)
(0.00042372756 2.7205831e-05 0.00010603947)
(0.00021761053 -2.0970162e-05 3.5186136e-05)
(0.00024408913 -2.2111588e-05 4.485887e-05)
(0.00042949648 4.4549856e-05 0.00013372702)
(0.00038598854 3.7175231e-05 0.00010961833)
(0.00040819099 3.2356198e-05 8.5021993e-05)
(0.0003215372 -2.8263617e-06 6.8866013e-05)
(0.00026927286 -5.49343e-05 2.1900606e-05)
(0.00042691556 9.191218e-06 7.6710423e-05)
(0.00041234587 3.5814856e-05 9.7405319e-05)
(0.00044877639 5.0808658e-05 0.00012044732)
(0.00041293542 3.3807567e-05 0.00010394964)
(0.00031449121 1.3523007e-06 6.7506013e-05)
(0.00038811818 2.576694e-05 9.1576095e-05)
(0.00045465866 5.1641669e-05 0.00012828226)
(0.00040303534 4.1456999e-05 0.00010709459)
(0.00028069433 -6.7616736e-05 2.737971e-05)
(0.00026947694 6.1343639e-06 6.265566e-05)
(0.00046673051 5.1962363e-05 0.00013892895)
(0.00028231453 -1.1669134e-05 6.3052478e-05)
(0.00042561501 5.1376174e-05 0.0001421092)
(0.00039440822 2.2291402e-05 8.9706834e-05)
(0.00038172803 1.9552058e-05 8.2213909e-05)
(0.00036765069 3.3258302e-05 9.3423153e-05)
(0.0003603536 1.0753001e-05 7.8871224e-05)
(0.00042628166 2.7204647e-05 8.364031e-05)
(0.00027054447 -3.5868273e-06 6.741844e-05)
(0.00038993471 2.9369732e-05 9.6587054e-05)
(0.00033632977 1.8190503e-06 6.7603145e-05)
(0.00033681187 -1.8357594e-06 5.393585e-05)
(0.00037064906 4.6495429e-05 0.00012709787)
(0.0004541509 4.2695029e-05 0.00012151693)
(0.0003177469 1.8092594e-05 7.303231e-05)
(0.00027515921 6.1928226e-06 3.0497962e-05)
(0.00032139447 2.0025977e-05 7.9699516e-05)
(0.0004237444 4.963515e-05 0.00013704202)
(0.00038126722 4.1292053e-05 0.00011386463)
(0.00041958526 5.3708804e-05 0.00012778636)
(0.00043157331 5.8065131e-05 0.00015157439)
(0.00028608777 -4.3275167e-05 2.4632983e-05)
(0.00029737875 -1.9928415e-06 7.3991261e-05)
(0.00029646347 -6.2424771e-05 3.0521719e-05)
(0.00038704312 5.1036806e-05 0.00014097953)
(0.00043340869 4.5500957e-05 0.00013826112)
(0.00038370526 4.2776385e-05 0.00013306105)
(0.00024027652 -1.9668755e-05 4.496073e-05)
(0.00035387219 7.9930321e-06 7.2395708e-05)
(0.00041805279 1.5242568e-05 9.5568454e-05)
(0.00028075893 -2.5229153e-05 6.0273272e-05)
(0.0003154977 4.7446734e-05 4.7001637e-05)
(0.00033633842 2.5478513e-05 9.1996268e-05)
(0.00035904157 4.4953343e-05 4.9385784e-05)
(0.00028620412 -1.2201991e-05 7.0485491e-05)
(0.00041387973 4.1717278e-05 0.00010013989)
(0.00026644927 -2.9073768e-07 6.6846648e-05)
(0.00043932816 5.0472909e-05 0.00012025174)
(0.00030661946 8.4979352e-06 6.7834054e-05)
(0.00032482057 3.5114032e-06 7.1262853e-05)
(0.00029046666 2.131583e-06 7.4818265e-05)
(0.00027970591 6.1067548e-06 6.9545972e-05)
(0.00028624736 -5.8800172e-05 2.5323743e-05)
(0.00041972628 4.7049822e-05 0.00011070695)
(0.00031908713 7.9939168e-06 8.745002e-05)
(0.00040215254 -8.6449744e-05 0.00014807309)
(0.00027617547 1.3577039e-05 7.3046081e-05)
(0.00035498875 7.8217878e-05 0.00014772191)
(0.00033172255 8.9634459e-06 5.7631647e-05)
(0.00033641629 -1.0577995e-06 4.6077261e-05)
(0.00022672552 -2.1856003e-05 3.8675288e-05)
(0.00028070361 -8.1306668e-06 6.8740204e-05)
(0.00027627869 -2.3239389e-05 5.8946382e-05)
(0.00027189145 -1.4159359e-05 6.1114702e-05)
(0.00041450624 2.5996145e-05 0.00010057151)
(0.00041660099 2.4286954e-05 0.00011119264)
(0.00028766479 -4.3029723e-06 7.739306e-05)
(0.00046020918 5.8732517e-05 0.00012770395)
(0.00026174299 9.8594108e-06 7.3718512e-05)
(0.00032846478 -1.3538294e-05 4.9267549e-05)
(0.00033057681 1.3318221e-05 8.1321366e-05)
(0.00042417327 -3.5427725e-05 9.8396224e-05)
(0.00032961965 1.6791509e-05 8.0945009e-05)
(0.00026577674 1.0482901e-05 8.0324412e-05)
(0.00034605767 -2.5914326e-05 6.6081721e-05)
(0.00031439972 1.5379512e-05 9.1739702e-05)
(0.00031196673 1.2511859e-06 8.5249223e-05)
(0.00032055885 2.2296823e-05 9.0244555e-05)
(0.00029005035 -5.5469383e-06 8.3287497e-05)
(0.00032445097 1.5181611e-05 9.1945486e-05)
(0.00025253217 -1.5153898e-05 6.169889e-05)
(0.00025348658 -2.1204817e-05 5.1635431e-05)
(0.00022769407 -2.8261372e-05 4.282651e-05)
(0.00032375181 8.6054187e-07 9.4051441e-05)
(0.00034292158 2.21385e-05 9.3466916e-05)
(0.00035122462 1.3411364e-05 8.9441815e-05)
(5.4325763e-05 -1.5659404e-05 2.0433484e-05)
(0.00032724892 2.041601e-05 8.5979546e-05)
(0.00031190353 1.515569e-05 9.4551116e-05)
(0.00034099902 2.3229274e-05 0.00010202192)
(0.00031969464 2.2711595e-05 9.6934045e-05)
(0.00034435715 1.9622927e-05 9.68999e-05)
(0.00033619488 2.7094352e-05 0.00010618278)
(0.00033795393 2.5184763e-05 9.9660919e-05)
(0.00031619207 2.4412915e-05 9.985428e-05)
(0.00030291659 3.7594746e-05 5.7554182e-05)
(0.00030140898 4.6452976e-05 4.9404011e-05)
(0.00042389975 -6.7458208e-05 0.00010678544)
(0.0003037982 -5.392958e-05 5.5161612e-05)
(0.00023074228 3.615675e-05 1.297127e-05)
(0.00032835015 -5.9466995e-05 5.1790892e-05)
(0.00028687862 3.3970257e-05 2.2196999e-05)
(0.00030923611 2.8812722e-05 2.5648928e-05)
(0.00022793275 4.8172278e-05 8.2694026e-06)
(0.00022293683 4.0076812e-05 1.1065102e-05)
(0.00031979325 2.887407e-05 3.6050523e-05)
(0.00026356324 3.7460503e-05 2.3958855e-05)
(0.00024385414 5.154684e-05 1.6099643e-05)
(0.00031428032 2.452517e-05 3.6006471e-05)
(0.00024958674 3.7467912e-05 2.0831631e-05)
(0.00026714126 2.7502182e-05 2.7949838e-05)
(0.00023022264 6.9514749e-05 4.2711396e-06)
(0.00023557618 4.8016172e-05 7.6586043e-06)
(0.00022512532 6.3784136e-05 4.7007771e-06)
(0.00024870499 5.2487169e-05 1.6504442e-05)
(0.00026292557 4.7557647e-05 3.0150776e-05)
(0.00020641638 2.3013909e-05 2.6816178e-05)
(0.00026017317 -6.0907734e-05 6.7059322e-05)
(0.00029044984 1.4639795e-05 4.2871557e-05)
(0.00025786128 4.4804015e-05 2.3675838e-05)
(0.00019141162 -4.9128126e-05 6.013809e-05)
(0.0001976752 2.4336661e-05 2.2861102e-05)
(0.00028311065 -5.7856616e-05 6.0073301e-05)
(0.00031633073 1.1814209e-05 3.7776014e-05)
(0.00026750956 1.8800821e-05 4.3650355e-05)
(0.00027071637 2.069159e-05 4.6540145e-05)
(0.00029055347 9.5023637e-06 4.5032522e-05)
(0.00025122824 3.2664893e-05 3.6260659e-05)
(0.00031833449 7.4249464e-06 4.6779671e-05)
(0.00025156313 8.120291e-06 4.5388771e-05)
(0.00026655325 1.9280683e-05 4.8283029e-05)
(0.00023246885 2.3699941e-05 4.1986647e-05)
(0.00023550343 4.8060832e-05 2.7137417e-05)
(0.00027855106 1.4633526e-05 5.7326617e-05)
(0.00027807447 1.1330263e-05 5.5315953e-05)
(0.00024139558 -2.5312462e-06 4.6077883e-05)
(0.00030261573 6.1737096e-06 6.4049762e-05)
(0.00023771743 3.4357589e-05 3.3332894e-05)
(0.00023168657 2.2310803e-05 4.5571015e-05)
(0.00024131725 1.1960873e-05 5.0343277e-05)
(0.00026686198 3.6269448e-06 6.083758e-05)
(0.00028351634 2.6554217e-05 5.9715986e-05)
(0.00030418974 1.0145076e-06 6.7670948e-05)
(0.00035417993 1.5262165e-05 8.3884247e-05)
(0.00027347824 2.7317999e-06 6.4970735e-05)
(0.0003731575 9.4798628e-06 9.2628157e-05)
(3.7172968e-05 1.048487e-05 2.2516412e-05)
(0.00042772459 -6.0525654e-05 0.00023049295)
(0.00040024462 -4.5140198e-05 0.0002232223)
(0.00035384248 -1.3061507e-06 7.7800898e-05)
(0.00035567192 4.68499e-06 5.2066105e-05)
(0.00028256589 2.1543809e-05 6.0176103e-05)
(0.00044331526 -3.5004986e-05 0.00026593859)
(0.00031045501 1.4886213e-05 7.8183227e-05)
(0.00029361423 1.7257824e-05 6.921193e-05)
(0.00035482563 -5.7928268e-06 8.5212942e-05)
(0.00036735147 9.4495503e-06 9.7873226e-05)
(0.00031634342 1.1728574e-05 8.3370627e-05)
(0.00036575142 4.3101611e-06 9.7528759e-05)
(0.00036007605 -5.4634205e-06 8.302981e-05)
(0.0003301435 -4.1859465e-06 8.7641169e-05)
(0.00031684772 2.2243453e-06 9.0092336e-05)
(0.00035894905 -6.1696006e-06 9.2616443e-05)
(0.00031287722 1.4279852e-05 8.2920968e-05)
(0.00035503173 -6.0353055e-06 9.4718955e-05)
(0.00029476206 -2.9122729e-06 8.8401712e-05)
(0.00033322239 3.1911314e-06 9.6709635e-05)
(0.00034288284 -1.6051748e-06 0.00010836939)
(0.00031963013 -4.1655718e-06 9.2227592e-05)
(0.00030435203 -2.9033258e-06 9.5612058e-05)
(0.00032658323 9.3943208e-06 9.711673e-05)
(0.00034950433 -8.2828279e-06 0.00010215948)
(0.00031476231 1.3603702e-05 8.8150741e-05)
(0.00038829749 -3.8426519e-05 0.00022540415)
(0.00035607508 -1.0794321e-05 0.00010052727)
(0.00041912276 6.5314953e-06 0.00013659818)
(0.00032886488 6.2093387e-06 0.00010158074)
(0.00034685506 -7.5641714e-06 0.00010475097)
(0.00041861446 3.4892743e-06 0.00013507774)
(0.00039376352 5.3599818e-05 0.00021926752)
(0.00040883113 -1.3352585e-05 0.00012520287)
(0.00039173121 1.5012271e-05 0.00012308233)
(0.0004143231 -1.133895e-05 0.00012426964)
(0.00030748398 -8.9192177e-06 9.9025806e-05)
(0.00038247147 -5.4800218e-06 0.00012869336)
(0.00037074124 -9.3916227e-06 0.00011865865)
(0.0003842712 -2.260514e-05 0.0001296372)
(0.0004207079 7.5862229e-07 0.00013856537)
(0.0003510096 -3.2602965e-06 5.7162095e-05)
(0.00036750135 -8.9594019e-06 0.0001213367)
(0.00039470789 7.7101529e-06 0.00012476901)
(0.00040096849 -1.7979664e-05 0.00014175938)
(0.00024144401 6.9870416e-05 7.7257538e-06)
(0.00039253902 4.2644163e-06 0.00012768119)
(0.00038701231 -1.1458739e-05 0.00013537351)
(0.00038198175 -5.1016835e-06 0.00013633846)
(0.00036907477 -8.102781e-06 7.5711899e-05)
(0.00034593263 9.5796921e-06 0.00010814288)
(0.00034426846 1.4281176e-05 0.00010201718)
(0.0003611315 -9.8883232e-06 9.0648072e-05)
(0.00035373955 -1.9884291e-06 0.00012214177)
(0.00039955334 1.277948e-05 0.00013031046)
(6.1152078e-05 -6.6154105e-06 3.3289062e-05)
(0.00038997481 6.9226081e-06 0.00013083707)
(0.00034777076 -1.64099e-05 9.4768299e-05)
(0.0004000616 1.4453923e-05 0.00012723438)
(0.00038807374 -2.2164864e-05 0.00013719008)
(0.00041019401 -1.8690661e-05 0.00012679066)
(0.00039347815 -4.2028581e-05 9.4617516e-05)
(0.00011325677 -3.3950539e-05 2.5809362e-05)
(0.00039608638 7.25042e-06 0.00013339267)
(0.00039428929 1.1558262e-05 0.0001257534)
(0.00039303184 7.862402e-06 0.00012872753)
(0.00038743805 -3.0590334e-05 8.1085328e-05)
(0.00040880456 1.3448353e-06 0.00014398999)
(0.00039329826 2.170088e-05 0.00011745818)
(0.00032277363 2.2277151e-05 9.5972072e-05)
(0.00041483039 -2.8591812e-05 0.00013913842)
(0.00038881857 1.7246887e-05 0.00011410165)
(0.00030440422 -1.3660394e-05 7.1218881e-05)
(0.00034118962 4.2699235e-06 0.00010818391)
(8.8537208e-05 -2.4475486e-05 1.8729396e-05)
(0.00033904203 1.8915027e-05 9.6611799e-05)
(0.00040789371 1.3892182e-05 0.00012191129)
(0.00037972197 -7.1981493e-06 8.6510989e-05)
(0.00040499861 -2.5360708e-05 0.00012223499)
(0.00035523004 -1.756819e-05 0.00010141257)
(0.00021224984 -2.1857511e-05 3.0218661e-05)
(0.00041041957 1.5219224e-05 0.00011925042)
(0.00042164134 2.8583608e-05 0.00011298454)
(0.00043947917 6.2462249e-05 0.00015297685)
(0.00040455662 1.0955167e-05 0.00011351721)
(0.00043421494 5.0054212e-05 0.00013131551)
(9.4619969e-05 -2.659539e-05 2.5311506e-05)
(0.00040886883 -2.3570151e-05 0.00015070838)
(0.00040723195 4.8167266e-06 0.00012143728)
(0.00037052173 -2.4278539e-05 0.00013709221)
(0.00037834966 -1.5607792e-05 0.00013705555)
(0.00037699106 -9.4844405e-06 0.0001379741)
(8.7380844e-05 -2.0874159e-05 4.0591003e-05)
(6.0646042e-05 -1.7238529e-06 3.345223e-05)
(0.00041880078 -3.9599224e-05 9.895314e-05)
(0.00032695849 -8.4917683e-06 5.1877825e-05)
(0.00042743539 -3.4540791e-05 0.0001493624)
(0.00038886104 -7.4177461e-06 0.00013989099)
(0.0003564948 -2.3617176e-05 9.8400797e-05)
(0.00031421529 -1.8720043e-05 7.9624671e-05)
(0.00034538017 -1.8714405e-06 0.00012379017)
(0.00041173828 -2.9614258e-05 0.00012915169)
(0.00036031249 -3.0808732e-05 0.00010325438)
(0.00043029042 -3.0152247e-05 0.00014826292)
(0.00031410202 -5.9617253e-05 5.6310861e-05)
(0.00041280004 2.8284364e-06 0.00014715215)
(0.00041223657 -3.5650901e-05 0.00012691324)
(0.00040781677 -3.4301478e-05 0.00011106294)
(0.00038679413 -2.5914334e-05 0.00014422323)
(0.00040831724 -2.2352191e-05 0.00015385422)
(0.00038405292 -2.4833163e-05 0.0001453798)
(0.00028455736 2.0671396e-05 7.3936007e-05)
(0.00043434595 -3.2839345e-05 0.00015839722)
(0.00037561303 -1.6321537e-05 0.00014079643)
(0.0002992511 3.5145021e-05 6.9278163e-05)
(0.00022303297 -3.029026e-05 3.5303026e-05)
(0.00031059438 2.055662e-05 8.42525e-05)
(0.00023704523 4.1377131e-05 1.3107624e-05)
(0.00032705036 -7.0635285e-05 5.69033e-05)
(0.00044605202 -3.5363072e-05 0.00016541381)
(0.00044291197 -3.2851101e-05 0.0001671866)
(0.0003641364 -1.5367517e-05 0.00013903298)
(0.00038605667 -3.2344011e-05 0.00015796269)
(0.00031826206 6.5449291e-05 1.1254529e-05)
(0.0003935709 -7.4727428e-06 0.00014838368)
(0.00039590861 -4.0295978e-05 0.00015868654)
(0.00030907926 2.0347539e-05 8.4985084e-05)
(0.00034136218 2.1613513e-05 0.00010125397)
(0.00039413902 -2.9613473e-05 0.0001591778)
(0.0003923397 -3.355911e-05 0.00016187969)
(0.00037969943 -2.7566517e-05 0.00015007433)
(0.00027868467 1.2108181e-05 8.0643563e-05)
(0.00026313282 -5.3366948e-05 1.9544663e-05)
(0.00027741085 -6.0437518e-05 2.7001955e-05)
(0.00038868836 -3.3763745e-05 0.00016291558)
(0.00039544884 -2.753425e-05 0.00015965064)
(0.00030099922 2.0990961e-05 9.7263785e-05)
(0.00026873408 -1.8831621e-05 0.00011665965)
(0.00026290267 -2.0709922e-05 0.00010899517)
(0.00039241928 -2.6111034e-05 9.4273011e-05)
(0.0003648184 2.2744977e-05 0.00010880197)
(0.00041387339 -2.9871534e-05 0.00010458541)
(0.00040789475 -3.7171809e-05 0.00013561318)
(0.00039037851 -3.9510504e-05 0.00016806823)
(0.00039149102 -3.4569476e-05 0.00014128531)
(0.00039580529 -2.2047249e-05 0.00016568039)
(0.00036376609 -3.5591159e-05 0.00015971339)
(0.00038993595 -2.2249405e-05 0.00015160215)
(0.00036494601 -1.2200112e-05 0.00014544208)
(0.00039375985 -2.9436387e-05 0.00016016058)
(0.00038463277 -3.7725732e-05 0.00013775376)
(0.00040464431 -3.9151144e-05 0.00016422358)
(0.00035784987 2.2073715e-05 0.00010535241)
(0.00044441623 -1.7392429e-05 0.00018513716)
(0.00037477859 1.6314204e-05 0.00011273524)
(0.00036484702 -2.4726419e-05 0.00016071613)
(0.00029609348 -2.9935593e-05 0.00013757729)
(0.00037983989 -3.4120639e-05 0.00017666567)
(0.00047083671 -4.7890737e-05 0.00019913119)
(0.00044315324 -2.0190144e-05 0.00018410117)
(0.00043407813 -2.4569532e-05 0.00017972194)
(0.00042078533 -1.9215666e-05 0.00016680509)
(0.0003277433 2.3380144e-05 9.7291925e-05)
(0.00039259084 2.9463266e-05 0.00011176145)
(0.00032513395 1.9709349e-05 8.9775007e-05)
(0.00043960958 -2.379842e-05 0.00018271591)
(0.0003636192 -3.3601138e-06 0.00012494327)
(0.00034718866 2.908092e-05 0.00011943996)
(0.0003431916 1.814441e-06 0.00011383805)
(0.00037340408 -3.1553975e-05 0.00017370651)
(0.00048627961 -5.5326737e-05 0.00021205396)
(0.00044659391 -4.5957976e-05 0.00020612354)
(0.0003604075 -3.6555513e-05 0.00011106697)
(0.0004131043 2.5177562e-05 0.00010414449)
(0.00036867144 -3.5189188e-07 0.00011675587)
(0.0003744992 -3.5661028e-05 0.00017673091)
(0.0004103538 -4.3195992e-05 0.00016272861)
(0.00036177946 -3.0392842e-05 0.00016804163)
(0.00036661997 -2.6211933e-05 0.00016284175)
(0.00027083145 -6.1328996e-05 6.6528264e-05)
(0.0004921841 -5.0722314e-05 0.00020892522)
(0.00042841099 -2.2753636e-05 0.00017901172)
(0.00045400909 -4.4561416e-05 0.00021718964)
(0.00040661905 -5.6791373e-06 0.00014928771)
(0.00028213004 -6.2954706e-05 6.7141964e-05)
(0.00017514099 -3.3755436e-05 4.1725873e-05)
(0.0003608698 -2.5943775e-05 0.00016935027)
(0.00027708987 2.1135703e-05 6.6615499e-05)
(0.00035968855 1.1939251e-05 9.7154044e-05)
(0.00040414232 -2.741509e-05 0.00017969309)
(0.00046410779 -3.7587574e-05 0.00021787806)
(0.00035542306 1.14193e-06 5.860986e-05)
(0.00046923545 -3.9546789e-05 0.00022147423)
(0.00030035631 3.3566891e-05 7.0756365e-05)
(0.00041803612 -4.2564561e-05 0.00013582327)
(0.00043041178 -2.460579e-05 0.00018246892)
(0.00040744722 -4.5470356e-05 0.00017309746)
(0.00040470654 -1.4669318e-06 0.00011757496)
(0.00026872639 -5.6143149e-05 2.5037658e-05)
(0.00044095568 -4.3943752e-05 0.00020694078)
(0.00044315958 -4.1966512e-05 0.00020360631)
(0.00042997097 -4.515937e-05 0.00014955668)
(0.0004001249 -3.1388282e-05 0.00018298822)
(0.00026415884 6.8266275e-05 1.7695213e-06)
(0.00039413236 -5.6493328e-05 9.9442019e-05)
(0.00027704078 -7.5888642e-05 2.2928135e-05)
(0.00045526553 -3.9120398e-05 0.00022596578)
(0.00040330425 -3.5681757e-05 0.00019678977)
(5.4983143e-05 -2.0905988e-05 1.9611072e-05)
(0.00039723553 -1.147284e-05 0.00015184328)
(0.00040128533 -3.951345e-05 0.00020214721)
(0.00039915228 -3.718154e-05 0.00019602303)
(0.00035799663 2.6684053e-05 9.9676333e-05)
(0.00039761887 -8.8488604e-06 0.00015595921)
(0.00044788535 -4.2709538e-05 0.00020345423)
(0.00046311227 -1.8030854e-05 0.00018564662)
(0.00044938453 -4.3037282e-05 0.0002199992)
(0.00035886097 -2.7711919e-05 0.00016906089)