/*--------------------------------*- C++ -*----------------------------------*\
  =========                 |
  \\      /  F ield         | OpenFOAM: The Open Source CFD Toolbox
   \\    /   O peration     | Website:  https://openfoam.org
    \\  /    A nd           | Version:  11
     \\/     M anipulation  |
\*---------------------------------------------------------------------------*/
FoamFile
{
    format      ascii;
    class       volVectorField;
    location    "10000";
    object      wallShearStress;
}
// * * * * * * * * * * * * * * * * * * * * * * * * * * * * * * * * * * * * * //

dimensions      [0 2 -2 0 0 0 0];

internalField   uniform (0 0 0);

boundaryField
{
    wall-fluid_domain
    {
        type            calculated;
        value           nonuniform List<vector> 
42113
(
(-1.6156957e-05 -4.8553447e-06 2.7274812e-05)
(-8.2245189e-07 4.1757155e-06 1.9238467e-06)
(-5.9659221e-06 -1.5558898e-06 1.5109835e-05)
(-1.4640511e-05 5.2218789e-07 2.3809904e-05)
(-8.4225364e-06 1.4410317e-07 1.3907236e-05)
(-3.849149e-07 2.1869185e-06 1.4729452e-06)
(-1.3117438e-05 -4.6845196e-07 1.7716991e-05)
(-1.3066937e-05 -2.6000938e-06 2.1261971e-05)
(-1.4736752e-06 4.2016778e-06 2.3977906e-06)
(-9.728158e-06 1.6868493e-06 1.1135794e-05)
(-1.6890469e-05 -2.2217876e-06 2.1661435e-05)
(-1.3383124e-05 -4.4151925e-06 2.2217946e-05)
(-2.3032895e-05 -2.9195072e-06 3.0253286e-05)
(-1.2656434e-06 1.5796104e-06 2.5171012e-06)
(-1.5060113e-05 -7.8664504e-07 1.861892e-05)
(8.4868194e-07 2.4299517e-06 -6.7646847e-07)
(-6.9609004e-08 2.9082057e-06 5.2946326e-07)
(7.5318114e-07 2.1156604e-06 -9.0056501e-07)
(6.9034519e-07 1.1897869e-06 3.1956826e-07)
(9.1501573e-08 2.0445939e-06 -1.5135161e-06)
(-3.4473394e-05 1.607252e-06 3.7997572e-05)
(-3.1021052e-05 -2.5472342e-06 4.841057e-05)
(-6.1248757e-05 -1.029983e-05 5.4378109e-05)
(-2.5510762e-06 2.3750913e-06 6.9261808e-06)
(-5.1253796e-08 3.9673572e-06 2.954274e-06)
(-1.3818589e-05 1.7569383e-06 2.1585284e-05)
(-8.0824013e-06 6.0777282e-07 1.0975618e-05)
(-3.1767301e-05 -2.4185788e-07 4.8139759e-05)
(1.6276335e-06 1.5976047e-06 -7.7830134e-07)
(6.0379425e-07 2.5548052e-06 -1.6239371e-06)
(-3.4942779e-06 1.2754842e-06 5.4399886e-06)
(-4.1008804e-06 4.8361473e-06 3.335728e-06)
(-3.0387101e-05 -1.5840806e-06 4.7791574e-05)
(-1.8676008e-05 -4.2628838e-06 2.5740124e-05)
(-2.5281059e-06 4.1739927e-06 2.3446805e-06)
(-3.4992906e-06 2.6739177e-06 5.6244504e-06)
(-4.4070982e-05 -8.8642305e-06 3.672721e-05)
(-1.2303321e-05 2.3759396e-08 2.2128652e-05)
(1.3160513e-06 3.0765783e-06 7.7116403e-07)
(9.7002486e-07 2.6598734e-06 -1.4116155e-06)
(2.1941298e-06 2.4186584e-06 -2.1771192e-06)
(-2.8449792e-05 2.2727342e-06 4.3985485e-05)
(-1.3407389e-06 4.0368761e-06 -3.3146897e-08)
(-5.9617749e-05 -3.7339854e-06 5.7284601e-05)
(-1.497594e-05 -1.4048239e-06 2.2080427e-05)
(-1.3275919e-06 7.2390426e-07 6.3260665e-06)
(1.6638421e-06 1.904051e-06 -3.3393178e-06)
(1.4611042e-06 2.2457386e-06 -2.5654326e-06)
(8.5579995e-07 2.3222278e-06 -6.483375e-07)
(1.6779139e-06 2.2939925e-06 -1.5363479e-06)
(-6.1917499e-05 -9.7097604e-06 6.0129375e-05)
(4.4156346e-08 2.5087072e-06 -5.5581803e-07)
(-3.1994805e-06 3.3724831e-06 4.3046205e-06)
(-1.9900812e-05 -7.8397737e-06 2.3681399e-05)
(-3.2847299e-05 8.6673786e-06 5.1716619e-05)
(-1.0834074e-07 2.3557702e-06 -8.487248e-07)
(-1.8954514e-05 6.8302417e-06 2.7647433e-05)
(-3.3321925e-05 -4.0437015e-06 5.8386187e-05)
(1.1658545e-06 2.4024988e-06 -2.4333381e-06)
(1.5064473e-07 2.3797776e-06 -1.9822188e-06)
(-2.6269444e-05 -2.9615338e-06 3.437832e-05)
(-2.6507306e-06 4.3467464e-06 5.7822887e-06)
(1.0896752e-06 2.1081743e-06 9.3211978e-08)
(-1.7348724e-06 4.2612038e-06 1.0314302e-06)
(1.8984974e-06 2.6384208e-06 2.4611202e-08)
(-3.1742731e-05 1.1337484e-06 4.4059144e-05)
(-4.2128218e-05 -1.0991383e-06 7.0512142e-05)
(1.9472258e-06 1.7781403e-06 -4.1513446e-06)
(-1.5511779e-06 4.7502537e-06 3.0201242e-06)
(-3.1870157e-05 4.9969017e-06 4.7155049e-05)
(-3.3242499e-05 1.8904891e-06 4.777374e-05)
(-2.6711108e-05 -1.2043555e-06 3.5986164e-05)
(2.0720288e-06 2.4177448e-06 -1.3557048e-06)
(1.4258146e-07 4.3809502e-06 1.1658687e-06)
(-8.2346601e-08 3.0013121e-06 -9.6184954e-07)
(-3.2955018e-05 -2.2121613e-06 4.4807266e-05)
(-2.7891541e-05 -3.0656805e-06 3.6761281e-05)
(3.2123794e-06 -9.358647e-07 -6.8289751e-06)
(-5.7443021e-07 3.6427962e-06 -6.2698352e-07)
(-5.4991476e-05 -5.2650733e-06 5.2710458e-05)
(-1.7238812e-06 3.9189421e-06 1.0242198e-06)
(-1.6887767e-05 -4.0284944e-06 2.1150103e-05)
(-2.8414833e-05 1.3288389e-06 4.6006738e-05)
(1.7302149e-06 2.5871107e-06 -2.3525678e-06)
(1.3182e-05 4.651055e-06 -2.1253308e-05)
(-1.4883319e-05 -3.1984406e-06 2.3910584e-05)
(-1.6997317e-05 -4.3306295e-06 2.3959162e-05)
(1.1379459e-05 2.5609051e-06 -1.9930497e-05)
(1.8025346e-06 2.2306088e-06 -1.4213817e-06)
(-2.4097931e-05 -2.2730404e-06 3.0629269e-05)
(-1.4266327e-05 -1.1666e-06 2.1661415e-05)
(-1.3638036e-05 -5.5563706e-07 2.1673489e-05)
(-5.5954335e-05 -1.5789735e-05 5.0473573e-05)
(-1.3121253e-05 -3.4785189e-06 2.5703321e-05)
(-1.3124383e-05 -1.2526766e-06 2.1557162e-05)
(-3.9622094e-06 1.9464586e-06 5.4794707e-06)
(-1.4024156e-05 -4.7817514e-07 2.1806904e-05)
(-8.8427721e-05 -1.0292834e-06 9.8225806e-05)
(-1.7646812e-05 -4.2722996e-06 2.1292872e-05)
(-3.570136e-06 3.3200842e-06 4.5439964e-06)
(-3.9040322e-05 3.3039678e-06 7.5502154e-05)
(-4.4897725e-05 -2.3936599e-06 6.3673345e-05)
(6.5186552e-07 3.4103871e-06 -2.4072205e-07)
(2.9194186e-06 1.8248308e-06 -2.9083386e-06)
(-4.3872204e-05 -1.2880296e-05 4.140726e-05)
(-4.8104864e-05 1.4486432e-06 7.0489085e-05)
(-1.3416295e-05 -3.2299501e-07 1.7860987e-05)
(-1.9244592e-05 1.7554481e-07 3.3895778e-05)
(5.6071212e-07 4.1581283e-06 1.2816348e-06)
(1.011082e-06 2.2008963e-06 -3.2720201e-06)
(-5.9844273e-05 8.2604522e-07 9.1889565e-05)
(-5.0537287e-05 3.3443583e-06 7.1062e-05)
(2.4811384e-06 -1.2177973e-06 -7.7068068e-06)
(-2.0363296e-05 7.8272135e-07 3.4122994e-05)
(-7.4105424e-05 -3.8683986e-06 0.00012176203)
(-2.3223352e-05 -5.8673823e-07 4.0408243e-05)
(-2.0354878e-05 3.7635167e-06 3.5809297e-05)
(-1.9914984e-05 -5.6827975e-07 3.7677208e-05)
(-5.6897003e-05 -2.2767453e-06 4.8089011e-05)
(-7.4598503e-05 -2.4771648e-06 0.00012124374)
(6.3911394e-07 3.2667209e-06 1.5879049e-06)
(-3.786372e-05 5.0776359e-06 4.0347299e-05)
(-1.8056512e-05 -2.7799243e-06 2.4701584e-05)
(-1.9817665e-05 1.3841273e-06 3.132755e-05)
(-2.1391584e-05 2.2400429e-06 3.8315654e-05)
(-8.242203e-08 2.541807e-06 -1.3561065e-06)
(-4.6689701e-05 1.4528298e-06 6.9421317e-05)
(-5.1592355e-05 -2.3003873e-06 8.6114042e-05)
(-5.4130857e-05 -4.0377769e-06 8.9224473e-05)
(-1.9384403e-05 3.0610087e-06 3.0207657e-05)
(-1.8415773e-05 -5.7812998e-07 3.0078068e-05)
(-2.5763782e-06 2.8988463e-06 5.2511126e-06)
(-1.8183793e-05 9.8217882e-08 2.8985328e-05)
(-1.9500711e-05 -3.408413e-07 3.4382855e-05)
(-3.0854123e-05 -5.4945239e-06 3.1239334e-05)
(-5.3637866e-05 -4.4681178e-06 8.2942525e-05)
(-1.7519429e-05 -8.8580286e-06 2.9468261e-05)
(-5.891263e-05 -2.3270952e-06 8.9839917e-05)
(-2.8542642e-06 3.5641394e-06 5.3653424e-06)
(-4.676695e-05 4.5969201e-06 8.2830174e-05)
(-4.3814738e-05 -9.3289556e-07 4.7246618e-05)
(-4.4855191e-06 3.0646957e-06 3.9501254e-06)
(-4.3459646e-05 -1.8054278e-06 8.0272459e-05)
(-1.8552084e-05 -1.6194975e-06 2.3690985e-05)
(-1.2261306e-05 -4.2428124e-06 2.5737919e-05)
(-3.371534e-05 5.0801457e-07 4.981274e-05)
(-1.9874575e-05 -4.3837069e-06 2.5745044e-05)
(-1.2292627e-05 -6.793414e-07 2.1054019e-05)
(4.4507815e-06 -1.6497492e-06 -1.073098e-05)
(-5.2915173e-05 2.0790988e-06 8.0553823e-05)
(-3.7308899e-05 -2.0066989e-06 3.6868252e-05)
(5.5367208e-06 -1.9961723e-06 -8.196251e-06)
(-5.6124359e-05 3.6965542e-06 9.0097098e-05)
(-3.1760688e-05 4.6399916e-07 4.9494447e-05)
(-4.9340362e-05 7.4732539e-06 8.408413e-05)
(-9.0733241e-05 -3.589964e-06 9.8953852e-05)
(-3.5086767e-05 -6.3963837e-07 5.0152013e-05)
(-3.230384e-05 -1.7149361e-06 4.1297597e-05)
(-5.379791e-05 1.1147521e-06 8.7220515e-05)
(-3.8002702e-05 -2.1464564e-06 5.1603348e-05)
(-1.3567214e-05 1.4906321e-06 2.7706357e-05)
(-3.5567624e-05 -2.298105e-06 4.3822047e-05)
(-3.1283059e-05 -4.2341161e-06 5.1679357e-05)
(-3.3663947e-05 -7.5592028e-06 4.3987766e-05)
(-4.1354395e-05 -1.4930523e-07 5.4659718e-05)
(-3.1506472e-05 -2.2259665e-06 4.0824245e-05)
(-3.5798523e-05 3.4723137e-06 4.8120669e-05)
(-1.3206703e-05 -2.1471211e-08 2.2240464e-05)
(-5.8245521e-05 1.5275128e-07 7.2664667e-05)
(-3.5030212e-05 2.780978e-06 4.2479274e-05)
(-3.1369922e-05 -6.805547e-06 4.1027042e-05)
(-3.1657029e-05 4.8734093e-06 3.8968473e-05)
(-3.781014e-05 4.490576e-07 5.3763402e-05)
(-1.3208649e-05 1.1336025e-06 1.785013e-05)
(-3.0066014e-05 -4.0812303e-06 4.0476126e-05)
(-3.2167974e-05 -1.2980284e-06 4.2244753e-05)
(-3.9844411e-05 -1.516099e-06 5.6312081e-05)
(-4.4199947e-05 8.7188397e-07 5.9989371e-05)
(3.6329632e-06 -3.2872034e-06 -8.2095164e-06)
(-3.1191452e-05 2.0000946e-06 4.1179121e-05)
(-3.8205941e-05 5.5283104e-06 4.7507965e-05)
(-1.1564155e-05 -2.170431e-06 2.0113288e-05)
(-4.1883386e-05 1.3755835e-06 6.5925958e-05)
(-4.8317394e-05 -4.2120873e-06 6.3767644e-05)
(-3.6270988e-05 8.1423548e-07 4.9238701e-05)
(-1.4224137e-05 -1.0356119e-07 1.9392396e-05)
(-3.6220996e-06 5.1772016e-06 5.2393061e-06)
(-3.4105842e-05 -6.1308613e-06 4.705702e-05)
(-1.9976061e-06 4.8820293e-06 3.9277045e-06)
(-2.4360492e-05 -2.7310605e-06 3.1943703e-05)
(-3.2782844e-06 2.2573369e-06 5.3468569e-06)
(-3.8034166e-05 -2.7844035e-06 5.0814865e-05)
(-1.3106064e-05 1.5679783e-06 1.8937122e-05)
(-2.0757986e-06 4.4392161e-06 2.628896e-06)
(-4.7295805e-05 -4.7093589e-06 6.3344658e-05)
(-3.7538517e-05 4.1133814e-06 5.357253e-05)
(-2.7982381e-05 -7.4323751e-07 3.7518877e-05)
(-1.730019e-05 -5.9528961e-07 2.9388342e-05)
(-5.0263671e-05 1.7489965e-06 7.9245625e-05)
(-2.8055964e-05 -9.9924989e-07 4.0319759e-05)
(-1.3418721e-07 5.0105657e-06 1.691332e-06)
(-4.26817e-05 1.1618159e-06 5.8964549e-05)
(-3.9206018e-05 -1.2499623e-06 5.6133176e-05)
(-7.0368082e-05 -3.4134766e-06 0.00011377587)
(-6.0428703e-05 -9.7101996e-07 0.00011759869)
(-2.8103478e-05 -7.1361254e-07 3.4962858e-05)
(-4.9927369e-05 -6.4411459e-06 4.588735e-05)
(-1.1757451e-05 -7.8648287e-07 2.1334377e-05)
(4.0456275e-06 -5.6300921e-07 -5.1403052e-06)
(-1.1853293e-05 -2.6395133e-06 2.0214695e-05)
(-6.133709e-05 5.496707e-06 9.9572443e-05)
(-4.8374952e-05 -6.9903958e-06 8.0059411e-05)
(-4.1687258e-05 -3.7472773e-06 6.6732768e-05)
(-3.1434382e-06 3.2796963e-06 6.5874317e-06)
(-3.6084466e-06 2.955658e-06 4.7800563e-06)
(-4.5266754e-05 8.0090579e-07 6.4996427e-05)
(1.3779814e-05 1.2022641e-06 -1.674993e-05)
(-4.6864527e-06 3.0230146e-06 5.6708621e-06)
(-4.4427763e-05 -6.4399419e-06 6.3588566e-05)
(-1.4682444e-06 5.1310642e-06 6.9894439e-07)
(-4.5447848e-06 3.1585385e-06 5.2505703e-06)
(-0.00010441995 3.973639e-06 0.0001839052)
(4.3924482e-06 -1.3242142e-06 -7.5122848e-06)
(-1.2400906e-05 -1.9239882e-08 2.0632853e-05)
(-4.9232491e-05 1.8002123e-06 7.8961543e-05)
(-1.3830656e-06 2.4241114e-06 3.3336619e-06)
(-3.770036e-05 -3.8081484e-06 5.9683921e-05)
(-4.4897292e-06 3.8589085e-06 5.9374871e-06)
(-2.1302488e-06 1.7054085e-06 6.1660306e-06)
(-1.1163398e-05 -3.772512e-07 1.8206916e-05)
(5.8716938e-07 1.504012e-06 2.008515e-06)
(-3.6881008e-05 -1.8516495e-06 6.2652857e-05)
(-3.767959e-05 -1.5062877e-06 6.0332361e-05)
(-1.0421827e-05 -1.3733644e-06 1.463008e-05)
(-3.9698633e-05 -2.3715775e-06 6.123177e-05)
(-4.1982297e-05 -7.4515487e-06 2.9772701e-05)
(-4.0879832e-05 -2.4761343e-06 6.3995197e-05)
(-1.1355276e-05 -2.6308362e-06 1.6895113e-05)
(-1.3231027e-05 -5.4625412e-06 2.1124135e-05)
(-5.1821626e-05 -2.7338186e-06 8.0069269e-05)
(-1.1416095e-05 -1.3734445e-06 2.4276657e-05)
(-5.9651524e-05 3.9676367e-06 9.8255631e-05)
(-5.8016198e-05 4.8626376e-06 6.5717558e-05)
(-5.6355783e-05 -2.5838596e-06 8.2465851e-05)
(-1.4221103e-05 -3.8005749e-06 2.2131524e-05)
(-2.8266548e-06 3.775535e-06 5.5136133e-06)
(-1.3214706e-05 3.7872497e-07 2.1405625e-05)
(-9.9977711e-06 -3.638214e-08 1.9523304e-05)
(-5.4072197e-06 3.0169547e-06 4.9804022e-06)
(-4.3296581e-05 1.0835108e-06 6.3049763e-05)
(-3.9840922e-06 5.712149e-06 8.6901374e-06)
(-1.0906047e-05 7.7274831e-07 1.8556192e-05)
(1.3291401e-05 -1.4869344e-06 -1.7010473e-05)
(-1.1124135e-05 1.4255985e-06 1.6400399e-05)
(-5.3907639e-05 -2.9124664e-06 8.7805787e-05)
(-1.0530351e-05 5.574285e-08 1.7711528e-05)
(-4.4778998e-06 2.9808867e-06 2.9578546e-06)
(-9.2011749e-06 9.7525532e-07 1.8260093e-05)
(-3.2863371e-05 -2.4628949e-06 5.2336461e-05)
(-9.585703e-06 -4.6389156e-07 1.7252861e-05)
(-5.4231946e-05 -8.8467675e-06 4.7235875e-05)
(-3.3472639e-06 4.3035313e-06 2.598384e-06)
(-3.5794783e-05 -2.3806128e-06 5.8773551e-05)
(-1.1389872e-05 -3.8284843e-06 2.1757516e-05)
(-2.5182061e-06 4.9281339e-06 1.7947064e-06)
(-4.2672962e-05 -2.2424953e-08 6.4984129e-05)
(1.8699156e-06 2.0553589e-06 -1.0640995e-06)
(-9.6414293e-06 9.5989029e-08 1.8215637e-05)
(4.4369259e-06 -1.617539e-06 -7.1127985e-06)
(-0.00010886963 6.0284149e-06 0.00018740736)
(-1.0556681e-05 3.490282e-07 1.5954699e-05)
(1.7650254e-06 1.98865e-06 -3.5661671e-06)
(-4.9627502e-05 2.176907e-06 8.2818489e-05)
(5.1320242e-06 -1.540892e-06 -6.271461e-06)
(-2.556391e-06 3.2961123e-06 7.314287e-07)
(3.0255839e-06 -5.920504e-07 -5.2593159e-06)
(-8.9384153e-05 2.827794e-06 9.4980566e-05)
(-4.3659934e-06 3.6955721e-06 5.218947e-06)
(-9.05385e-05 2.6069088e-06 8.9585703e-05)
(-1.3530994e-05 3.8148361e-07 2.5669913e-05)
(-7.3444693e-05 -6.8526341e-06 8.6769099e-05)
(-5.6852947e-05 -5.4490623e-06 6.9593425e-05)
(-4.4017512e-06 3.2489817e-06 6.702328e-06)
(1.4730508e-06 -8.5129993e-07 -4.3333088e-06)
(3.1605855e-06 6.4379988e-07 -4.7593881e-06)
(-1.163837e-05 -2.2052462e-06 1.8964935e-05)
(4.6048667e-07 2.8979559e-06 -1.2552077e-07)
(2.4310905e-06 -9.1781368e-07 -4.8841398e-06)
(-7.0891668e-05 -2.825245e-06 0.00011993761)
(-1.4319466e-05 -3.5880706e-06 1.988345e-05)
(-9.1994128e-06 -3.3716212e-06 1.9213787e-05)
(-1.1594796e-05 -3.1439679e-06 1.7707498e-05)
(-1.0754341e-05 -4.0101284e-06 1.5099736e-05)
(-1.3400053e-05 -1.6512295e-06 1.6450529e-05)
(-2.1240307e-05 -8.6119811e-06 3.3524539e-05)
(-1.0074654e-05 -1.2632169e-06 1.5113839e-05)
(-1.2338509e-05 -3.4423825e-06 1.5419422e-05)
(-6.0433816e-05 -6.7511936e-06 5.4832922e-05)
(-3.9273374e-05 1.2897094e-06 5.826973e-05)
(-4.1703806e-06 3.994301e-06 5.8517725e-06)
(5.0212517e-07 -2.5467505e-06 -4.7594108e-06)
(-2.3211088e-05 -3.739624e-06 3.0359638e-05)
(-5.9361093e-06 2.5785589e-06 7.4849686e-06)
(-6.1430792e-05 -4.8846316e-06 5.8797336e-05)
(-0.00010525584 6.8319165e-06 0.0001788619)
(6.5554227e-06 -3.7928965e-06 -1.2827224e-05)
(-4.5006756e-06 3.7580254e-06 4.4556739e-06)
(-6.3606747e-06 4.4244138e-06 6.0469467e-06)
(-5.6968158e-05 2.1790412e-07 8.0567975e-05)
(4.2951873e-06 -3.554402e-06 -1.0173208e-05)
(-4.0419534e-06 4.4511466e-06 4.9504571e-06)
(-4.8180148e-05 -4.3345496e-06 7.0707714e-05)
(4.2053786e-06 -3.876061e-06 -7.9115677e-06)
(3.2462509e-07 -3.0616895e-06 -3.0402064e-06)
(-2.2382087e-06 4.0501051e-06 4.4310003e-06)
(-4.7905686e-05 -5.9151028e-06 4.4588312e-05)
(-3.5214587e-06 3.7105451e-06 3.9073448e-06)
(-4.6520244e-05 -9.3973145e-06 4.4893637e-05)
(-6.6945104e-07 5.758652e-06 2.0857669e-06)
(-6.419e-05 -5.1532896e-06 9.8998274e-05)
(-2.3352102e-06 5.7395779e-06 5.5007585e-06)
(-4.9441053e-06 2.7409046e-06 7.0616523e-06)
(-2.2818389e-06 4.6267617e-06 4.5647808e-06)
(-6.1600291e-06 4.7598565e-06 7.9095103e-06)
(-4.0192397e-06 5.3009574e-06 7.2069893e-06)
(-6.2856007e-05 -9.2457974e-06 4.3353536e-05)
(-3.9246734e-06 2.4166058e-06 5.6474521e-06)
(-3.5485891e-06 5.1378941e-06 3.9969035e-06)
(-6.1084331e-06 4.3015963e-06 6.0315307e-06)
(-5.2157519e-06 4.0715011e-06 3.965931e-06)
(-5.9048165e-06 3.2699642e-06 6.958946e-06)
(-4.5610557e-05 4.2356785e-06 8.0206736e-05)
(-4.9762768e-05 -4.5201723e-06 8.4740961e-05)
(-5.7819885e-06 3.9911432e-06 8.0894041e-06)
(-5.5579869e-05 3.2458448e-06 8.8974825e-05)
(-5.8404899e-06 4.1713711e-06 7.4837408e-06)
(-4.0626016e-06 4.7465911e-06 5.1828246e-06)
(-2.4535465e-06 2.3939936e-06 -1.8216924e-07)
(-7.5444518e-06 2.6065027e-06 5.6879153e-06)
(-7.2214205e-06 4.8069378e-06 7.5356425e-06)
(-7.1489562e-06 3.2450671e-06 5.5032335e-06)
(-4.5974883e-05 2.9262958e-08 6.9322097e-05)
(-5.8931394e-06 3.5221296e-06 2.1248128e-06)
(-3.4868828e-05 -6.5736484e-07 3.0522831e-05)
(-4.4317117e-06 3.3622099e-06 9.3275936e-06)
(-1.6327374e-05 2.0982298e-06 2.785659e-05)
(-6.1482189e-06 3.8127509e-06 6.2281614e-06)
(-2.3273101e-06 6.0910388e-06 5.9718541e-06)
(-3.4397042e-06 5.3381327e-06 2.8117496e-06)
(-4.4303472e-06 4.6494693e-06 3.8603352e-06)
(-7.5061942e-06 3.4965965e-06 5.8129421e-06)
(-4.9705413e-06 5.2367392e-06 3.3407716e-06)
(-2.4761236e-07 2.4130859e-06 -4.558202e-08)
(-2.0811098e-05 -1.5131589e-06 2.1883266e-05)
(-5.5330071e-06 2.6770795e-06 3.9470564e-06)
(-7.0319074e-06 3.5123941e-06 4.6917417e-06)
(-5.2032302e-06 3.8749149e-06 7.4930987e-06)
(-5.3662369e-06 3.701179e-06 6.8506452e-07)
(-1.5900692e-05 -2.3481696e-06 1.6178669e-05)
(-6.5433702e-06 3.8642201e-06 7.9942414e-06)
(-7.4903857e-06 3.1033519e-06 6.3961788e-06)
(-6.0381417e-05 3.0443565e-06 8.3111591e-05)
(-4.3345482e-06 2.8824835e-06 4.0818895e-06)
(-6.4984216e-06 3.1632616e-06 3.8757282e-06)
(-8.2284001e-06 2.6811555e-06 8.213276e-06)
(-2.1327684e-05 -5.5372377e-06 2.8607619e-05)
(-1.4651224e-06 4.6481716e-06 3.4383478e-06)
(-4.8809933e-06 4.2334948e-06 1.6660988e-06)
(-4.0849695e-05 4.8163012e-06 5.9426647e-05)
(-5.7845281e-05 -4.2799112e-06 8.6305922e-05)
(-7.0094194e-06 3.9163347e-06 9.3524243e-06)
(-5.2959495e-06 2.9723259e-06 9.3323379e-06)
(-6.5806198e-06 2.4112235e-06 8.3615034e-06)
(-7.5698448e-06 2.5125988e-06 7.8699025e-06)
(-6.5816921e-06 3.701243e-06 9.9173161e-06)
(-5.8773247e-06 3.9758547e-06 1.0931388e-05)
(4.2987769e-06 -5.4692569e-07 -4.8742691e-06)
(-5.3368722e-06 2.7292436e-06 8.2566717e-06)
(-6.9890116e-06 3.3018216e-06 1.0463404e-05)
(-3.0236719e-06 3.1899092e-06 7.6483148e-06)
(-9.2973571e-06 3.3405967e-06 9.6156916e-06)
(-7.3625155e-06 4.108594e-06 7.0610428e-06)
(-2.6759139e-06 4.7011826e-06 5.3914615e-06)
(-1.9858738e-06 4.4625862e-06 2.1455801e-06)
(-5.9605539e-06 4.1931208e-06 8.0791944e-06)
(-8.1976907e-06 3.9572535e-06 8.3962024e-06)
(-1.1597832e-05 3.5423852e-06 1.2039318e-05)
(-9.3073968e-06 3.3130066e-06 1.2574957e-05)
(-4.0103366e-06 2.6216313e-06 -3.5869669e-07)
(-1.0353351e-05 6.1151438e-06 1.4727491e-05)
(-2.0150236e-06 4.7173492e-06 6.1827081e-07)
(-1.1043083e-05 2.5752387e-06 1.241973e-05)
(-9.008976e-06 3.833144e-06 1.0895005e-05)
(-8.8530617e-06 4.3527606e-06 1.1832248e-05)
(-2.5595731e-06 4.4019097e-06 1.4065576e-06)
(-6.0221682e-06 6.3585703e-06 9.5262632e-06)
(9.1418218e-06 -1.3709061e-06 -8.7915089e-06)
(-9.612704e-06 3.5310003e-06 1.3013379e-05)
(-1.6134231e-05 5.2217531e-06 2.397825e-05)
(-5.138839e-05 4.2270092e-06 7.8402972e-05)
(-6.0546805e-06 4.0228982e-06 4.7969146e-06)
(-3.3124296e-06 3.3820375e-06 1.5406544e-06)
(-9.1079964e-06 -7.9260977e-06 5.8586202e-06)
(-6.141555e-06 -1.057325e-05 6.4073834e-06)
(-1.4847506e-05 1.5738634e-06 2.6785446e-05)
(-9.3461987e-06 1.886571e-06 1.0529231e-05)
(-2.6155885e-06 3.5045387e-06 -1.8196619e-07)
(-1.2568288e-06 2.3847776e-06 4.6901956e-07)
(-7.9361927e-06 1.7782987e-06 7.6545549e-06)
(-3.205448e-08 3.2237145e-06 1.0121075e-06)
(-6.3490906e-06 2.5254628e-06 7.9934859e-06)
(-1.1147096e-05 2.657043e-06 1.3588323e-05)
(-9.9871287e-06 2.1723287e-06 1.0401881e-05)
(-1.212017e-05 2.7053655e-06 1.610436e-05)
(-9.8143014e-06 3.6712108e-06 1.4385457e-05)
(-3.1817697e-05 -5.0050769e-06 4.3779668e-05)
(-1.0444651e-05 2.5114217e-06 1.0347882e-05)
(-6.866231e-05 -6.5467932e-06 0.00011045394)
(-1.0272088e-05 2.6856067e-06 1.1999157e-05)
(-1.0203312e-06 3.2326041e-06 3.1971198e-06)
(-8.1490063e-06 4.2341282e-06 9.474953e-06)
(-1.1961665e-05 1.8493279e-06 1.2832788e-05)
(1.1784353e-05 2.8709262e-07 -1.734522e-05)
(-7.2536382e-06 4.3040573e-06 1.2663821e-05)
(-2.2802474e-06 2.3429326e-06 -1.6273119e-06)
(-6.085279e-06 -6.2514371e-06 2.1191921e-06)
(-8.584276e-06 3.2375959e-06 1.0198671e-05)
(-9.193904e-06 -6.1831932e-07 1.4471571e-05)
(-7.3152537e-06 -6.9461332e-07 1.7573887e-05)
(-1.3621571e-05 1.5138927e-06 1.7025042e-05)
(-9.426358e-06 2.6244978e-06 1.1467555e-05)
(-5.495202e-06 2.1433082e-06 8.5197475e-06)
(-9.9315759e-06 -5.011746e-07 9.1556163e-06)
(-1.0397118e-05 1.0568181e-06 2.0353098e-05)
(-1.2385051e-05 1.8394186e-06 1.3183199e-05)
(-4.6448904e-05 -4.9636411e-07 6.8446803e-05)
(-3.9398496e-05 3.6039682e-07 6.7615976e-05)
(-7.9527475e-06 1.8505822e-06 1.129638e-05)
(-5.8546277e-05 -3.1381257e-06 7.1977512e-05)
(-1.1376909e-05 -3.7337864e-06 1.4856583e-05)
(-4.2857214e-05 -2.0673847e-06 6.9573595e-05)
(-8.6893182e-06 -4.6205524e-06 1.6415241e-05)
(-1.0669603e-05 1.9111319e-06 9.2736613e-06)
(-4.6878389e-05 -4.5624328e-07 7.2230271e-05)
(-9.0739808e-06 3.0086563e-06 1.0359377e-05)
(-3.7268705e-05 -2.4352028e-06 6.1113993e-05)
(-1.4215885e-05 2.6160032e-06 1.8838698e-05)
(-9.3932673e-06 1.9174876e-06 1.1267234e-05)
(-4.020261e-05 -4.6100621e-07 6.7668588e-05)
(3.6043321e-06 -2.8506331e-07 -3.5113438e-06)
(-4.3600465e-05 -1.4547161e-06 6.2642036e-05)
(-1.0112391e-05 2.6956611e-06 1.0661135e-05)
(-1.3484485e-05 5.4864455e-06 1.9227757e-05)
(-6.800732e-06 3.2210857e-06 1.3304331e-05)
(-3.6236143e-05 -5.0397832e-06 5.5274235e-05)
(-8.3410807e-06 1.2642919e-06 1.0594798e-05)
(-1.687544e-05 4.3622392e-06 1.9921331e-05)
(-9.8429034e-06 -6.2947571e-08 1.0301945e-05)
(-3.9249497e-05 -2.4488628e-06 5.9225177e-05)
(-1.5429678e-05 7.5080999e-07 1.7852386e-05)
(1.041097e-05 6.5080579e-07 -1.7765042e-05)
(-1.3917177e-05 1.7677864e-06 1.880186e-05)
(-9.4554612e-05 1.067768e-05 0.00016055306)
(-5.8634031e-05 -1.3267874e-05 5.5896621e-05)
(-2.9812858e-05 1.7435433e-06 4.629115e-05)
(-4.034065e-05 -1.2611728e-07 5.8798695e-05)
(-6.9254819e-06 4.5008275e-06 1.2983983e-05)
(-1.7236644e-05 7.3032547e-07 1.7305666e-05)
(-1.5766414e-05 6.221777e-06 2.366993e-05)
(-3.7897243e-05 -2.5388056e-06 5.6272877e-05)
(-3.2401916e-05 4.521805e-06 5.2332991e-05)
(-4.3315873e-05 3.5390524e-06 6.2307377e-05)
(-3.8847285e-05 -2.6143317e-06 6.332329e-05)
(-7.8483279e-06 2.3984935e-06 9.6416938e-06)
(-1.3886926e-05 5.7157621e-06 2.3380413e-05)
(-1.3453313e-05 5.2714529e-06 2.1734326e-05)
(-1.2077369e-05 1.8456803e-06 1.4187654e-05)
(-1.5674831e-05 -5.2134272e-07 1.7798946e-05)
(-1.6673724e-05 2.1782463e-06 2.025151e-05)
(-8.1982304e-06 4.1733899e-06 1.3635592e-05)
(-8.3889718e-06 1.6560957e-06 1.0997701e-05)
(-9.4866879e-06 8.2017246e-07 1.0407456e-05)
(-6.4331073e-06 1.4201542e-06 1.0886624e-05)
(-7.8841817e-06 1.6115932e-06 1.0150037e-05)
(-1.8302261e-05 6.7304307e-06 2.7749543e-05)
(-9.5805435e-06 2.5601757e-06 1.2867876e-05)
(-7.5650524e-06 3.5937973e-06 1.4446861e-05)
(-1.0459903e-05 1.4065688e-06 1.4419771e-05)
(-1.8245844e-05 3.2971731e-06 2.4138595e-05)
(-1.1086884e-05 2.6146207e-06 1.1662858e-05)
(-1.2479966e-05 4.2109012e-06 1.9503789e-05)
(-1.138575e-05 2.3096929e-06 1.3087482e-05)
(-7.7217009e-06 1.6592821e-06 1.1287807e-05)
(-1.8158488e-05 -3.409146e-06 1.8283151e-05)
(-8.4545194e-06 1.9028725e-06 1.3766311e-05)
(-1.3550404e-05 4.4657262e-06 1.7801699e-05)
(-9.9206292e-06 2.3322652e-06 1.6241623e-05)
(-8.5074403e-06 3.2000199e-06 1.6295338e-05)
(-6.2562465e-06 2.6770163e-06 1.306285e-05)
(-9.9906247e-06 4.2050492e-07 1.3303722e-05)
(-1.69628e-05 1.606271e-06 2.0041923e-05)
(-1.1150614e-05 2.875214e-09 1.5543553e-05)
(-9.6104058e-06 3.3963595e-06 1.916441e-05)
(-1.2179676e-05 3.3234568e-06 2.1623494e-05)
(-1.2784002e-05 2.1629185e-06 1.6647002e-05)
(-1.0268941e-05 1.6423282e-06 1.5458391e-05)
(-1.3379952e-05 8.1979304e-07 1.9211296e-05)
(-1.2794116e-05 4.7987248e-07 2.5543765e-05)
(-1.2168197e-05 1.3672244e-06 2.2088127e-05)
(-9.8866642e-06 6.3941311e-06 1.4657252e-05)
(-3.7575542e-05 -1.2291557e-06 5.8925289e-05)
(-1.4223376e-05 9.8355699e-07 1.8496156e-05)
(-1.5343702e-05 3.3525168e-06 2.2046961e-05)
(-1.4942709e-05 3.4283251e-06 1.8824663e-05)
(-1.1938448e-05 9.0574895e-07 2.4654978e-05)
(-1.5832776e-05 5.4975856e-07 2.0375361e-05)
(-1.7507026e-05 1.0724202e-06 2.1233193e-05)
(-7.9540724e-06 -3.5150514e-07 1.4078255e-05)
(-1.5750715e-05 6.6777054e-06 2.323257e-05)
(-1.5143342e-05 3.5302158e-06 2.1365907e-05)
(-1.7847252e-05 -4.6747373e-07 2.3049361e-05)
(-1.7171403e-05 3.0156429e-06 2.6422716e-05)
(-7.6196486e-06 -1.6068017e-06 1.5498964e-05)
(-1.53096e-05 5.1717129e-06 2.4055612e-05)
(-1.7464092e-05 1.4651713e-06 2.0644957e-05)
(-1.9453474e-05 2.8912475e-06 2.6953188e-05)
(-9.6229566e-07 -3.4448562e-06 -1.0263367e-06)
(-9.0630156e-06 -2.2938589e-07 2.3915297e-05)
(-1.2494332e-05 3.2716689e-06 1.9086155e-05)
(-1.8181524e-05 1.9259959e-06 2.2601732e-05)
(-7.775386e-06 4.51213e-07 1.3403803e-05)
(-1.660982e-05 6.1684488e-06 2.7215449e-05)
(-4.0455913e-05 -2.7124159e-07 6.5056244e-05)
(-1.0119324e-05 -4.5413341e-07 1.4785395e-05)
(-1.6752058e-05 -3.1749646e-07 2.3304366e-05)
(-2.4768236e-05 5.511947e-06 3.7084497e-05)
(-2.5660547e-06 -3.2002646e-06 -2.4843428e-07)
(-1.3785307e-05 4.4015615e-06 1.5822301e-05)
(-2.2184358e-05 -9.8694696e-07 2.6286194e-05)
(-1.8039748e-05 3.5993579e-06 2.1420476e-05)
(-1.7085196e-05 2.4249135e-06 2.2464989e-05)
(-2.0366786e-05 1.0552592e-06 2.7600911e-05)
(-1.7695233e-05 5.8823761e-06 2.6115834e-05)
(-4.2456671e-05 -1.9151713e-06 6.7049752e-05)
(-1.6771444e-05 2.8832966e-06 2.351381e-05)
(-2.0874771e-05 6.259348e-07 2.4045076e-05)
(-2.5900056e-05 6.1820057e-06 3.3554891e-05)
(-2.6002796e-05 2.389192e-06 3.024725e-05)
(-2.3345975e-05 2.8537039e-06 3.1781675e-05)
(-2.495592e-05 4.5017877e-06 3.6340412e-05)
(3.6768571e-06 -3.9206953e-06 -7.5752712e-06)
(-3.1786669e-05 3.920235e-06 4.0653534e-05)
(-2.3509569e-05 2.8754316e-07 3.4716086e-05)
(-2.4403859e-05 -1.1245629e-07 3.0938883e-05)
(-2.6037954e-05 4.2272893e-06 3.5516194e-05)
(3.3092036e-06 -5.6135971e-06 -8.079529e-06)
(2.6987287e-06 -4.9979323e-06 -8.1826867e-06)
(5.7670964e-06 -2.3332656e-06 -1.1706087e-05)
(-2.8993537e-05 -3.697271e-06 3.7471175e-05)
(-2.2793507e-05 6.4941488e-06 3.3736476e-05)
(-2.418252e-05 2.4872295e-06 3.629188e-05)
(-2.7166857e-05 3.3880169e-06 3.9219536e-05)
(1.046298e-05 -2.3590447e-06 -1.5576895e-05)
(1.7413362e-06 -4.8791639e-06 -6.5442418e-06)
(1.1195563e-05 -7.0369727e-07 -1.7211568e-05)
(-2.8372216e-05 1.8399216e-06 3.7648269e-05)
(3.206217e-06 -1.8123233e-06 -9.0472388e-06)
(-2.6972511e-05 5.7831311e-06 3.633364e-05)
(-1.659262e-05 5.4199184e-07 2.057438e-05)
(-2.1681601e-05 -7.2356857e-07 2.6789388e-05)
(-2.4581887e-05 2.3797855e-06 3.2299425e-05)
(9.0528852e-06 -1.0255247e-06 -1.7754083e-05)
(-2.5372266e-05 -6.9091578e-06 2.1986369e-05)
(1.0252172e-05 -2.4873855e-06 -1.3367399e-05)
(-2.4695303e-05 -9.878456e-07 2.552243e-05)
(1.5942969e-06 -7.6321126e-07 -2.2480867e-06)
(9.5830881e-06 -3.1562479e-06 -1.5157501e-05)
(-1.0376e-05 9.678492e-08 2.2462159e-05)
(1.2023205e-05 -2.68888e-06 -1.658777e-05)
(-2.5169014e-05 -5.4165921e-06 4.3010765e-05)
(-7.7810305e-06 4.1480303e-07 1.1065868e-05)
(-3.2147082e-05 -4.8118771e-08 4.8245539e-05)
(-5.7750817e-06 -5.5007351e-07 1.1434004e-05)
(-8.9803211e-06 -2.4396449e-07 1.2367964e-05)
(-6.7051538e-06 -2.1351883e-06 1.3643587e-05)
(-2.6249367e-05 -8.617046e-07 4.1402314e-05)
(-6.8921856e-06 7.2601463e-07 1.1132112e-05)
(-3.5537542e-05 8.9595367e-06 5.9480557e-05)
(-3.0792206e-05 -9.4726069e-07 4.9815384e-05)
(-5.0681396e-06 -2.9245144e-07 1.2114879e-05)
(-5.4152317e-05 8.4986646e-07 8.0771056e-05)
(-6.2081677e-06 -3.0337106e-07 1.1936308e-05)
(-7.4776684e-06 -2.7105638e-07 1.5003906e-05)
(1.6300625e-07 -3.7341191e-06 -4.1153784e-06)
(-0.00010741457 1.4702559e-05 0.00017396149)
(-3.8012751e-05 -4.8669607e-07 5.1448575e-05)
(-2.595597e-05 -1.8111386e-06 4.0326799e-05)
(-2.4989317e-05 -8.1544799e-07 3.8298774e-05)
(-2.1125689e-05 -8.9672404e-06 2.1804516e-05)
(-2.7660511e-05 -1.8269093e-06 2.34777e-05)
(-4.3415171e-05 -5.9036601e-06 7.1919486e-05)
(-2.2170532e-06 -1.7267528e-06 -1.959418e-06)
(-3.6733931e-05 -1.6827763e-06 6.1192853e-05)
(-3.189396e-05 4.2260976e-07 4.0782976e-05)
(-4.4954018e-05 5.3968065e-07 7.8006589e-05)
(-2.8337229e-05 1.9767065e-06 4.3390298e-05)
(-4.0597283e-05 -6.1986801e-06 6.633748e-05)
(-4.2312273e-05 -1.9548498e-06 6.6151014e-05)
(-3.9649342e-05 -2.8240923e-06 6.2604591e-05)
(-4.1517823e-05 -2.0282092e-06 6.4562244e-05)
(-4.4610034e-05 3.5987517e-07 6.6596256e-05)
(-4.2711677e-05 -3.5836887e-06 6.903675e-05)
(-4.1946952e-05 -1.7845811e-06 7.1399407e-05)
(-4.4976821e-05 -1.3946927e-06 7.007533e-05)
(-4.5612131e-05 -3.1682503e-06 7.1822673e-05)
(-3.841544e-05 -3.6258386e-06 6.4517928e-05)
(-4.9323509e-05 1.6243703e-06 7.3716884e-05)
(-3.9239442e-05 -1.8025575e-06 6.2710976e-05)
(9.6931107e-06 -1.5146703e-06 -1.485871e-05)
(-3.9991756e-05 -9.158255e-07 6.2741408e-05)
(-4.1107492e-05 -2.3899488e-06 6.5132531e-05)
(-4.9333375e-05 9.6804729e-07 7.9729541e-05)
(-3.4055623e-05 -2.4321878e-06 5.582341e-05)
(-4.2147751e-05 -2.1903711e-06 6.4591973e-05)
(-3.3326502e-05 -2.7901661e-06 5.3747163e-05)
(-3.8770189e-05 -3.1025894e-06 6.1901216e-05)
(-3.8249192e-05 -1.8918538e-06 6.1746409e-05)
(-4.0791322e-05 -1.8286222e-06 6.299102e-05)
(-4.6861293e-05 3.9220348e-06 6.9742306e-05)
(9.3645633e-06 1.6459112e-06 -1.7459387e-05)
(-3.4572776e-05 -2.005785e-06 5.6268032e-05)
(-4.0045113e-05 -1.735234e-06 6.2997967e-05)
(-3.1951874e-05 -2.5823415e-06 4.9642646e-05)
(-3.8127634e-05 -2.3884706e-06 5.4074646e-05)
(-4.2882397e-05 3.261577e-06 6.3297312e-05)
(-3.8057101e-05 -8.8729202e-08 5.8651909e-05)
(-4.093165e-05 6.3813256e-07 6.2512972e-05)
(-5.9414507e-05 1.6253391e-06 8.1328109e-05)
(-3.9878721e-05 2.7992902e-06 6.1395497e-05)
(-4.1778412e-05 1.1019191e-06 6.4851115e-05)
(-2.5465609e-05 2.0451751e-06 3.1351244e-05)
(-3.0524549e-05 -3.4700698e-06 5.1753291e-05)
(1.9522616e-06 -2.6309838e-06 -5.0097012e-06)
(-4.5537882e-05 -4.0803264e-06 7.1541213e-05)
(-4.2272392e-05 -1.3643015e-06 6.5332198e-05)
(-3.7447757e-05 -1.3379831e-06 5.6760453e-05)
(-3.6955031e-05 9.3382478e-07 5.8618633e-05)