/*--------------------------------*- C++ -*----------------------------------*\
  =========                 |
  \\      /  F ield         | OpenFOAM: The Open Source CFD Toolbox
   \\    /   O peration     | Website:  https://openfoam.org
    \\  /    A nd           | Version:  11
     \\/     M anipulation  |
\*---------------------------------------------------------------------------*/
FoamFile
{
    format      ascii;
    class       volVectorField;
    location    "10000";
    object      wallShearStress;
}
// * * * * * * * * * * * * * * * * * * * * * * * * * * * * * * * * * * * * * //

dimensions      [0 2 -2 0 0 0 0];

internalField   uniform (0 0 0);

boundaryField
{
    wall-fluid_domain
    {
        type            calculated;
        value           nonuniform List<vector> 
50990
(
(0.00051445293 -7.2678513e-05 8.8868395e-05)
(0.00052650509 -8.8042128e-05 9.866661e-05)
(0.00028505872 -3.7759532e-05 0.0001148046)
(0.00046767046 -1.259598e-05 8.9180164e-05)
(0.00057628501 -7.6942073e-05 0.00012543606)
(0.0006326885 -4.665623e-06 0.00010755655)
(0.00049018324 -7.3059227e-05 8.7627453e-05)
(0.00047825127 -5.2788316e-05 8.403183e-05)
(0.00056188934 -1.9993334e-05 0.00010956785)
(0.00066199931 -4.7695666e-05 0.00011933474)
(0.00045423976 -5.5395799e-05 7.9312852e-05)
(0.00062890142 -5.353298e-05 0.00011439726)
(0.00025450887 -2.3264953e-05 0.00011978644)
(0.00055734755 -8.8850061e-05 0.00010842504)
(0.00077866664 -5.0605197e-05 0.00018919858)
(0.00084997143 -7.9603526e-06 0.00018276751)
(0.00065102921 -2.7956435e-05 0.00012099137)
(0.00057830137 -8.430607e-05 0.00013444375)
(0.00074968691 1.2826932e-05 0.00016896556)
(0.00067358352 1.6279591e-05 0.00015201818)
(0.00049398544 2.5932416e-05 0.00018606711)
(0.00062667896 2.4692904e-06 0.00011131773)
(0.00067140632 -3.0022917e-05 0.00013200921)
(0.00065804624 -2.4194027e-05 0.00011848246)
(0.00053825734 -9.1373828e-05 0.00012631922)
(0.00067455185 3.0514746e-05 0.00012789642)
(0.00050207938 5.093943e-05 0.00019229327)
(0.00061814249 7.3550594e-06 0.00010965431)
(0.0004728027 -8.1048628e-05 0.00017011977)
(0.0004806792 4.45627e-05 0.00021006672)
(0.00077697856 -2.5524694e-05 0.00017301814)
(0.00072658853 6.802689e-05 0.0001804465)
(0.00066396842 -3.7152622e-06 0.00012153054)
(0.00073317844 3.3895422e-05 0.00014449614)
(-0.00014835648 -4.6620599e-05 -8.7462747e-05)
(0.00073774316 5.4494547e-05 0.0001603559)
(0.00061590356 1.1682894e-05 0.0001120085)
(0.00084636297 -1.5912285e-05 0.00017514894)
(0.00063597526 2.5173082e-05 0.00013264036)
(0.00076130521 8.5417687e-05 0.00020794417)
(0.00071413592 -2.2431849e-06 0.0001582378)
(0.00081179009 -7.2145174e-05 0.00021045615)
(0.00031506091 -3.5951835e-05 0.00017880535)
(0.0002229008 -2.5017322e-05 0.00013213339)
(0.0006301807 7.6090243e-05 0.00020183808)
(0.00077211928 -3.2116821e-05 0.00017288116)
(0.00062109936 4.5517821e-05 0.00015780275)
(0.00077583229 -4.8686003e-05 0.0001887994)
(0.00064843831 -1.2383078e-05 0.00013767271)
(0.00066581067 -2.4019034e-05 0.00015067596)
(0.00042456662 -0.00010145099 0.00012684253)
(0.00047109771 -0.00010945174 0.00010410559)
(-0.00017726862 -3.7580036e-05 -0.0001011184)
(-0.00023415438 -5.4937476e-05 -0.00013913666)
(0.00045996261 -9.3148618e-05 9.9608457e-05)
(-0.00021132413 -5.5106747e-05 -0.00013080226)
(0.00073313329 -4.9883309e-05 0.00017899286)
(0.00051545282 -8.326869e-05 8.6135464e-05)
(0.00040816218 -8.195845e-05 0.00015931035)
(0.00050899518 2.3256255e-05 0.0001934793)
(0.00040701901 -8.189795e-05 0.00014987552)
(0.00031290543 -1.5660088e-05 0.00015390902)
(0.00032308915 -6.9831247e-05 0.00013852527)
(0.00041258448 -0.00010526517 0.00010995995)
(0.00056028525 -7.3829705e-05 0.00010399694)
(0.00017354228 -8.9807505e-06 0.00012279024)
(0.00058947161 -5.8659643e-05 0.00011216451)
(0.00022972325 -6.145491e-05 0.00010934301)
(0.00071105418 -5.6394824e-05 0.00041090664)
(0.00046551952 -7.2471729e-05 8.1017562e-05)
(0.00031935195 -9.6682537e-05 0.00011014903)
(0.00016365727 -1.0787358e-05 0.00013689611)
(0.00013422782 2.6810568e-06 0.00011535545)
(0.00053790639 -3.380756e-05 0.00010756769)
(0.00014424207 -3.3751179e-05 9.124637e-05)
(0.00038690027 -8.5684872e-05 0.00010973661)
(0.00012779624 -2.9324128e-06 0.00012201218)
(0.00011686098 1.3402043e-05 0.00010857814)
(9.2077599e-05 1.6931499e-05 0.00011655188)
(0.00015917085 -4.3374169e-05 7.93402e-05)
(0.00031018616 -7.6935634e-05 8.7368759e-05)
(0.00010835042 2.4333787e-05 0.00010998003)
(6.7502467e-05 1.1735885e-05 7.3521895e-05)
(0.00037975923 -8.8667207e-05 9.6373941e-05)
(9.7518267e-05 -2.8602079e-05 5.9773203e-05)
(0.00018704557 -7.5467991e-05 6.0286454e-05)
(0.00027477844 -8.6331814e-05 5.6967409e-05)
(0.00038493365 -0.00010787183 8.3474537e-05)
(5.6515456e-05 -4.7555716e-05 6.6307605e-06)
(4.137996e-05 1.4289337e-05 6.4597887e-05)
(0.00017698158 -6.538602e-05 3.6988944e-05)
(9.6907736e-05 -6.8817162e-05 1.8277285e-06)
(7.8207037e-06 -6.1544605e-05 -1.7268134e-05)
(3.2228529e-05 8.7588142e-06 3.7676862e-05)
(0.00071565195 -5.9391212e-05 0.00041044085)
(0.00066371741 -5.1016253e-05 0.00037612096)
(0.00048653457 -4.1871013e-05 0.00029081479)
(0.00050923557 -8.2845768e-05 8.7056118e-05)
(0.00010533561 2.2270792e-05 0.00011313646)
(0.00056847419 -6.5174564e-05 0.00010494388)
(0.00042845341 -7.5369035e-05 7.5636652e-05)
(0.00050194168 -3.5706504e-05 9.9854532e-05)
(5.0631573e-05 1.5804584e-05 6.7710946e-05)
(0.00042772528 -7.7728147e-05 7.5874372e-05)
(0.00047825373 4.7085863e-05 0.00020147102)
(-5.0738753e-05 -3.5916317e-05 -4.3015156e-05)
(2.1519179e-05 5.9007776e-06 3.9476147e-05)
(-5.4764059e-05 -2.7508106e-05 -4.4694515e-05)
(-6.8834325e-05 -6.2723609e-05 -7.9921563e-05)
(0.00053197049 -2.0039794e-05 0.00010954703)
(0.00045653868 -6.2012716e-05 8.734275e-05)
(0.00051898177 -5.4841643e-05 0.00010467942)
(0.00055918359 -5.0372684e-05 0.0001155693)
(0.00044442437 -8.2403706e-05 8.1816975e-05)
(0.000435656 -7.1458113e-05 8.4646373e-05)
(0.00055328985 -3.7074125e-05 0.00011871354)
(0.00046658154 -5.5182272e-05 0.00010728958)
(0.00042702547 -6.3752097e-05 8.4624146e-05)
(0.00050178651 -3.9067297e-05 0.00011562011)
(0.0004745698 -4.1536467e-05 0.00010666601)
(0.00044850179 -5.4168455e-05 9.5263544e-05)
(0.00041868374 -7.9041332e-05 6.3966899e-05)
(0.00029754056 -5.5183605e-05 6.1805883e-05)
(0.00036194565 -7.7834934e-05 6.2552243e-05)
(0.00045496228 -8.3363131e-05 9.9595555e-05)
(0.00047017737 -6.2297321e-05 0.00011129889)
(0.00047155048 -4.3994501e-05 0.00011399256)
(0.00054920853 -3.9114462e-05 0.00013280059)
(0.00046358452 -7.5504978e-05 9.7419144e-05)
(0.00047676378 -5.759606e-05 0.00011723263)
(0.00056174784 -2.7687504e-05 0.00011906938)
(0.00047892347 -3.5307373e-05 0.00011809579)
(0.000562901 -2.6219605e-05 0.00013029565)
(0.00054203911 -3.1287958e-05 0.00013578311)
(0.0006431765 1.8096505e-05 0.00012619649)
(0.00051423975 -1.9257501e-05 0.00013127875)
(0.00047320898 -5.3367992e-05 0.00011854528)
(0.00056501287 -1.8502438e-05 0.00012431416)
(0.0005369187 -4.201006e-05 0.00013831404)
(0.00049575352 -4.8182079e-05 0.00012977712)
(0.00034131189 -6.231406e-05 7.892257e-05)
(0.00055241271 -2.5071049e-05 0.00014832027)
(0.000550594 -2.829621e-05 0.00014666937)
(0.00056747278 -1.1413528e-05 0.00013815105)
(0.00052663225 -1.8903927e-05 0.00013823378)
(0.00041391882 -6.5994688e-05 0.00011285472)
(0.00063912241 4.7385831e-05 0.0001505882)
(0.000658082 7.2051976e-05 0.00016638436)
(0.00036700212 -3.8000078e-05 0.00010704185)
(0.00073251182 5.7386952e-05 0.00017507999)
(0.00054898625 -3.439344e-05 0.00015785708)
(0.00056538033 -1.1571472e-05 0.00015450629)
(0.00055219379 6.476079e-05 0.00015138676)
(0.00050638969 -4.3534546e-05 0.0001494945)
(0.00058855324 -8.5507925e-06 0.00015751507)
(0.00059606647 2.7665071e-05 0.00013543384)
(0.00047156582 -2.2660988e-05 0.00014017865)
(0.00062499654 -1.4224778e-05 0.00017775175)
(0.00050386226 -1.370605e-05 0.0001477172)
(0.00060103243 -1.7856196e-06 0.00014665386)
(0.00043677259 -3.9891763e-05 0.00014182009)
(0.00051299938 -2.5740737e-05 0.00016789077)
(0.00049427295 -3.3731964e-05 0.00015627784)
(0.00062625686 -9.4659721e-07 0.00016997971)
(0.00052404721 -1.0874466e-05 0.00016515828)
(0.00063140863 -2.7279341e-05 0.00021471811)
(0.00063082432 -2.0537859e-05 0.00021366825)
(0.00064425084 8.44003e-06 0.00016716847)
(0.00064511445 -3.7476893e-06 0.0001887431)
(0.00064106398 -6.0288008e-06 0.00019575085)
(0.000620824 1.0716045e-05 0.00017825566)
(0.00073429248 5.9719904e-05 0.00020579261)
(0.00063214288 -2.5217303e-05 0.00021975757)
(0.00067405186 -1.1974813e-05 0.00013821552)
(0.00057029886 1.1127931e-05 0.00017961286)
(0.00063613697 -9.2391138e-06 0.00022096536)
(0.0007516158 -9.8609556e-05 0.00023557992)
(0.00051069609 -1.2981979e-05 0.00017422842)
(0.00063676942 -1.2082616e-05 0.00022873719)
(0.0005735183 5.398073e-06 0.00019025913)
(0.00063423716 1.1249612e-07 0.00022262286)
(0.00051098141 -1.3687259e-05 0.00017949268)
(0.00059310713 1.838283e-05 0.00019117624)
(0.00060393855 -2.2972813e-05 0.00020307163)
(0.00061442181 1.3463691e-06 0.00022128677)
(0.00059018622 -1.6115434e-06 0.00021655479)
(0.00066002258 3.0484048e-05 0.00019864021)
(0.00057789626 1.2470866e-05 0.00019582383)
(0.00061706694 2.0548701e-06 0.00023060529)
(0.00069890651 -9.1769864e-05 0.00021543179)
(0.00059144393 1.4971293e-05 0.00021582044)
(0.0006042435 1.9459009e-05 0.00020567724)
(0.00065681246 -9.2702915e-06 0.0002506259)
(0.00063132998 9.316124e-06 0.00023951382)
(0.00062345731 7.4651908e-05 0.00020036792)
(0.00056022768 2.6367394e-05 0.00018643332)
(0.00061516434 7.8106708e-06 0.00023568233)
(0.00067481065 1.6812768e-06 0.00025278516)
(0.00075056955 3.2011034e-05 0.0002688048)
(0.0005005465 -5.8561041e-06 0.00011778691)
(0.00064547193 2.0141853e-05 0.00024724146)
(0.00061902849 5.511871e-06 0.00023905698)
(0.0007115946 1.163915e-05 0.00028197476)
(0.000705296 1.9643284e-05 0.0002495039)
(0.0005960521 1.0182372e-05 0.00022263589)
(0.00071532764 -7.1081994e-06 0.00027078712)
(0.00060924122 -5.1262852e-06 0.00014444403)
(0.00062055886 -1.0868777e-05 0.00022083515)
(0.00073516588 2.7794876e-05 0.00027192892)
(0.00067652439 2.1977132e-05 0.00017838516)
(0.00063239263 8.9495753e-06 0.00025355366)
(0.00073854528 2.3441921e-06 0.00028350579)
(0.00077586932 4.1759092e-05 0.00028296729)
(0.00056725045 2.6170033e-05 0.00019389943)
(0.00073501136 2.1076959e-07 0.00029287851)
(0.00066265143 -3.2405266e-06 0.00013478038)
(0.00066305835 -1.2394763e-05 0.0002526558)
(0.00049768134 -1.6470454e-05 0.00016850262)
(0.00067797264 3.9303719e-05 0.00019651088)
(0.00077801769 3.5524514e-05 0.00027865082)
(0.00052149081 -7.252493e-06 0.00017378163)
(0.00063511659 6.2787646e-06 0.00025771988)
(0.00067534011 -9.8405746e-06 0.00025651369)
(0.00071200312 -7.6297695e-06 0.00028589724)
(0.00064100679 5.9015356e-06 0.00026657217)
(0.00050588319 -1.6490755e-05 0.00017462311)
(0.00062318268 -1.8576887e-05 0.00023278704)
(0.00062700602 -2.3989188e-05 0.00022827276)
(0.00067535454 3.5078674e-05 0.00016212065)
(0.00067576931 3.9325342e-05 0.00022184982)
(0.00064622001 2.6431084e-05 0.00016513856)
(0.00072570553 -2.0983948e-05 0.00026406582)
(0.00071825693 -4.9998103e-06 0.00028323987)
(0.00064533128 1.2825241e-05 0.00016048111)
(0.00068401739 -3.5054645e-05 0.00023627555)
(0.00071539298 -1.3241037e-05 0.00026772837)
(0.00049342959 -3.0533021e-05 0.00016104578)
(0.00068745147 -9.6909713e-05 0.00022136577)
(0.00048500608 2.6929611e-05 0.00015271731)
(0.00075138943 -1.3719541e-05 0.00027180299)
(0.00059168938 -3.1327596e-05 0.00019910899)
(0.00067990383 -2.9451855e-05 0.00022806344)
(0.00066508854 -2.1728962e-05 0.00022647889)
(0.0007230789 3.9845442e-05 0.00027983256)
(0.00040435369 -3.8356849e-05 0.00012296915)
(0.00075090709 -6.5166477e-06 0.00027763802)
(0.0007344882 4.5918892e-05 0.00026816593)
(0.0007244252 1.6621119e-05 0.00028783377)
(0.00059320774 -3.049662e-05 0.0002016665)
(0.00073799695 3.0506467e-05 0.0002813755)
(0.00072402769 1.6556751e-05 0.00028342002)
(0.00068637643 4.6362548e-05 0.00023683174)
(0.00072598275 2.2080148e-05 0.00029043366)
(0.00075830845 9.0040893e-06 0.00030739993)
(0.00067249992 4.5624322e-05 0.00019374025)
(0.00065928261 5.8549919e-05 0.00017995809)
(0.00066678343 3.4747969e-05 0.00018674364)
(0.00073599016 4.8101655e-05 0.00026335217)
(0.00068390412 4.8058193e-05 0.00026499666)
(0.00067390073 5.0904451e-05 0.0002125732)
(0.00068562219 3.8783701e-05 0.00027127321)
(0.00077117829 1.3631305e-05 0.0003197874)
(0.00062603534 5.0324564e-05 0.00019688254)
(0.00071424657 5.8600086e-05 0.00023977765)
(0.00072479426 3.7375763e-05 0.00028616279)
(0.00051310723 6.1377822e-06 0.00011393625)
(0.00079522487 5.598744e-05 0.00029918421)
(0.00072317615 6.0093656e-05 0.0002037656)
(0.00062482892 -1.281556e-05 0.0002246657)
(0.00063217229 -0.00010447835 0.00029920645)
(0.00068085416 -1.8976915e-05 0.00025016384)
(0.00080303608 6.7538844e-05 0.00031227373)
(0.00073248393 2.5695308e-05 0.00030200372)
(0.00067081791 6.6399775e-05 0.00016218133)
(0.00067066804 8.2168344e-05 0.00018658763)
(0.00072124778 2.4626017e-05 0.00028180179)
(0.00074111263 5.4456623e-05 0.00029873157)
(0.00060826509 0.00010772516 0.00029533531)
(0.00075999292 1.7663402e-05 0.00031929897)
(0.00080841027 6.7355625e-05 0.00032620839)
(0.00070115044 7.0184211e-05 0.00028457096)
(0.00070637307 4.9436941e-05 0.00015745331)
(0.00068333081 -2.2655355e-05 0.00024871602)
(0.00066878045 9.0709846e-05 0.00018957637)
(0.00075291622 6.5887645e-05 0.00031359729)
(0.00063895227 6.0954238e-05 0.00027716829)
(0.00077564156 4.3734007e-05 0.00031593733)
(0.00056383254 -3.0515083e-05 0.00019997145)
(0.00062631149 -4.0709199e-05 0.00021784441)
(0.00077011874 5.8187389e-05 0.00033237925)
(0.00071035004 4.806898e-05 0.00030520539)
(0.00064096731 4.6293866e-05 0.00017533752)
(0.00076046694 1.4788281e-06 0.00031017667)
(0.00043288334 -2.8322182e-05 0.00013478608)
(0.00065563375 1.2143958e-05 0.00016099924)
(0.00065314264 4.9864639e-05 0.0001955446)
(0.00073451769 6.845469e-05 0.00026098735)
(0.00077196881 4.6264469e-05 0.00032257056)
(0.00075968883 -2.2336067e-07 0.00030636143)
(0.00072795343 4.1087806e-05 0.00029282493)
(0.00075488538 7.0763646e-05 0.00028590045)
(0.0006490021 5.8209534e-05 0.0002144372)
(0.00042136221 -4.680056e-05 0.00013702559)
(0.00064139801 -1.8955356e-07 0.00024843668)
(0.00077411594 6.8623501e-05 0.0002991811)
(0.00071572742 -3.7376264e-05 0.00022324551)
(0.00071621486 6.8557953e-05 0.00029751491)
(0.00076356998 4.0647816e-05 0.00031394042)
(0.00075353496 3.1795413e-05 0.00030627895)
(0.00070736644 4.677597e-05 0.00030243808)
(0.00073700103 2.4363534e-05 0.00030949845)
(0.00066376132 3.9008364e-05 0.00016672378)
(0.00066484194 -2.052701e-05 0.00022029985)
(0.00077330008 4.6050895e-05 0.00032961445)
(0.00076796522 1.2903261e-05 0.00032246996)
(0.00050481432 -4.5852692e-06 0.00011532952)
(0.00064446811 5.8610177e-05 0.00028576553)
(0.00073888066 6.0052492e-05 0.00025428041)
(0.00065890867 2.9511833e-05 0.00028741434)
(0.00059786945 2.1271997e-05 0.00013285222)
(0.00065172062 3.1733553e-05 0.00028373219)
(0.00077644744 6.6231776e-05 0.00034173773)
(0.00072006551 5.4000718e-05 0.00031495919)
(0.00068775633 7.039936e-05 0.00026449825)
(0.00074495003 7.659437e-05 0.00032131122)
(0.00067996731 -2.9610782e-05 0.00023206871)
(0.00071492609 -1.2771693e-05 0.00025129722)
(0.0006537093 -3.7293758e-05 0.00022331768)
(0.0006896703 6.4951289e-05 0.00031668086)
(0.00081426286 5.8434653e-05 0.00036140186)
(0.00069832401 5.3206435e-05 0.0003186789)
(0.00062043846 -4.1783299e-05 0.00020717516)
(0.00077685613 2.2185455e-05 0.0003255012)
(0.00089600905 2.3900311e-05 0.00038717773)
(0.00071888069 -5.7001787e-05 0.00022502125)
(0.00053928779 4.3804896e-05 0.00019063927)
(0.00070033864 2.8312429e-05 0.00031475404)
(0.00061570622 4.4489283e-05 0.00021503036)
(0.0007160548 -3.708693e-05 0.00021949133)
(0.00065548381 5.6194376e-05 0.00019233466)
(0.00065964017 -1.6508652e-05 0.00021219331)
(0.00070619199 6.9732489e-05 0.0002293695)
(0.00069005841 1.6908226e-05 0.00029547384)
(0.00075816644 1.0828596e-05 0.00031557321)
(0.00070872991 -7.3495575e-06 0.00024429306)
(0.00066294213 -2.2387658e-06 0.00026030682)
(0.00066206141 -3.4375834e-05 0.00022265784)
(0.00066998306 6.4428096e-05 0.00020764995)
(0.0007552398 -2.2536784e-06 0.00027027228)
(0.00066953242 -0.00011604062 0.00028305375)
(0.00065705137 3.1857065e-06 0.00025187734)
(0.00060106625 0.00011415631 0.00026255922)
(0.00050654677 7.7873972e-06 0.00011591209)
(0.00070365577 -7.5449259e-07 0.00015672946)
(0.00058944164 -4.291109e-05 0.00018948468)
(0.00070917415 -3.5078202e-05 0.00020786407)
(0.00070863992 -5.7922607e-05 0.00021120321)
(0.00069836821 -4.6622394e-05 0.00019983963)
(0.00090792286 3.0616005e-05 0.00039152844)
(0.00089283311 3.0604866e-05 0.00039159974)
(0.00070332224 -2.7132953e-05 0.00019609125)
(0.00073899996 8.1410148e-05 0.00023322799)
(0.00061976466 2.0560827e-06 0.00020253342)
(0.00067009079 -2.243511e-05 0.00014681476)
(0.00077762611 1.0867795e-05 0.00031270169)
(0.00083122777 -6.9211264e-05 0.00022397023)
(0.00074235034 1.5562512e-05 0.00031066162)
(0.00063027621 5.4881978e-06 0.00021204418)
(0.00069813153 -4.4264185e-05 0.00016774102)
(0.00074757984 1.0476279e-05 0.00026056514)
(0.00074808313 -1.1827715e-05 0.00022787779)
(0.0007092882 2.4487728e-05 0.00030694216)
(0.0006986511 -1.9926117e-05 0.0002049077)
(0.0007646766 1.0740682e-05 0.00028255568)
(0.00063204292 -5.5633306e-05 0.0001640707)
(0.00065742084 -5.4047218e-05 0.00019085069)
(0.00060153105 -5.8904021e-05 0.00018335913)
(0.00076922337 -8.582214e-06 0.00023953158)
(0.00080695945 2.1417437e-05 0.00031987276)
(0.00081527086 1.2815104e-05 0.00032696063)
(-8.9561297e-05 4.212995e-06 -4.6445717e-05)
(0.00074297632 2.0642196e-05 0.00031147204)
(0.00074018962 1.6850449e-05 0.00026416289)
(0.00079230151 2.5019929e-05 0.00031133203)
(0.00075527731 2.5769652e-05 0.00027817348)
(0.0007805611 1.8695786e-05 0.00032318363)
(0.0007804295 3.4739203e-05 0.00030692886)
(0.00077577756 2.8523571e-05 0.00031874738)
(0.00074262769 3.1388767e-05 0.00028182741)
(0.00050463862 2.8460076e-05 0.00019070618)
(0.0005028554 4.4699914e-05 0.00018649391)
(0.0007575576 -0.00010481567 0.00023551066)
(0.00045436378 -8.5420616e-05 8.5638114e-05)
(0.00054294898 5.921247e-05 0.00013144378)
(0.00046996178 -9.875102e-05 7.6200023e-05)
(0.00066378981 6.4246076e-05 0.00014951767)
(0.00070481505 4.853281e-05 0.00015263263)
(0.00054775053 7.0382227e-05 0.00014578663)
(0.00052978073 6.6367122e-05 0.00013172542)
(0.00072014318 5.01256e-05 0.00015746542)
(0.00062334876 6.8914915e-05 0.00014461576)
(0.00059925126 8.3446981e-05 0.00015072333)
(0.00071706297 4.9517588e-05 0.00015212106)
(0.00059558731 7.1330569e-05 0.00013852221)
(0.00062343465 5.9031208e-05 0.0001415198)
(0.0005543442 9.248848e-05 0.00015727004)
(0.00058053254 8.2026045e-05 0.00014050874)
(0.00055675052 9.2173304e-05 0.00015740811)
(0.00062054049 9.8809019e-05 0.00014799208)
(0.00064334762 8.4818684e-05 0.00015427378)
(0.00048268201 4.9439337e-05 0.00011028312)
(0.00031069315 -0.00011497465 5.2059678e-05)
(0.00065155964 3.501898e-05 0.00013933458)
(0.00063326312 9.2642768e-05 0.00014779349)
(0.0001936982 -0.00010339765 2.4090185e-05)
(0.00046823742 5.624012e-05 0.00010508408)
(0.00038912948 -0.00010959552 7.559808e-05)
(0.00069531924 2.8137638e-05 0.00014900237)
(0.00061560488 5.3499573e-05 0.00013966849)
(0.00061528664 4.7581662e-05 0.00013908447)
(0.00064385902 2.1228294e-05 0.00014040849)
(0.00060014725 7.6533414e-05 0.00013874365)
(0.00069596988 2.121623e-05 0.00015358489)
(0.00055141089 3.267459e-05 0.00011935834)
(0.00060311209 6.0116063e-05 0.00013223081)
(0.00052621705 6.5238982e-05 0.0001211143)
(0.00058967813 9.6058289e-05 0.00013589782)
(0.00061029021 4.473156e-05 0.00013553308)
(0.00061033661 4.8921799e-05 0.00013288846)
(0.00051813393 8.1543514e-06 0.0001164798)
(0.00065423143 2.5404009e-05 0.00014860663)
(0.00056733843 7.9481702e-05 0.0001276895)
(0.00052280181 6.4573635e-05 0.00011957799)
(0.00052128054 4.644548e-05 0.0001084135)
(0.0005677323 2.7990236e-05 0.000121402)
(0.00061268001 8.2395189e-05 0.000132192)
(0.00065054384 1.541143e-05 0.00014837357)
(0.00073927522 5.4696716e-05 0.00015990204)
(0.00058274557 1.8610992e-05 0.00012987556)
(0.00078501596 4.8825165e-05 0.00017471593)
(-0.00024308398 -5.8960179e-05 -0.00013844457)
(0.00072309324 -7.9931602e-05 0.00039991395)
(0.00067052433 -6.1016787e-05 0.00038524302)
(0.00075717088 5.0615142e-06 0.00017534387)
(0.00075522696 7.7412687e-06 0.00016420014)
(0.00060261656 7.4860757e-05 0.00012428134)
(0.00074979675 -4.3793797e-05 0.00045155082)
(0.00062775301 5.9612577e-05 0.00013458434)
(0.0005921791 6.3205491e-05 0.00012223231)
(0.00075754028 -6.174657e-07 0.00017537241)
(0.00073807854 4.4661413e-05 0.00016362101)
(0.00062446758 5.1354066e-05 0.00013557556)
(0.00072793752 3.9858443e-05 0.00015571685)
(0.00076295957 -3.6606092e-06 0.00017509561)
(0.00068033115 1.6447021e-05 0.00015793847)
(0.00064246299 2.2752602e-05 0.00014571607)
(0.00074622835 -2.4795733e-06 0.00017206499)
(0.00059564884 5.7696913e-05 0.00012278565)
(0.00074195466 -5.0869783e-07 0.0001712503)
(0.00056382058 2.0014104e-05 0.00012356298)
(0.00060815228 4.185866e-05 0.00013001348)
(0.00063705862 3.7365413e-05 0.00014415407)
(0.00063533392 1.4069325e-05 0.00014611538)
(0.00058754428 2.003045e-05 0.00013522561)
(0.00057467318 5.253749e-05 0.00012102493)
(0.00070013167 -2.0021694e-06 0.00016657568)
(0.00055137075 5.9231884e-05 0.0001090271)
(0.00065422127 -5.0475042e-05 0.00038302398)
(0.00073010661 -1.4351768e-05 0.00018001188)
(0.00074231224 4.5158971e-05 0.00017309468)
(0.00056447754 4.114788e-05 0.00012227297)
(0.00069533118 -1.2478631e-06 0.00016286614)
(0.00072649353 4.0815744e-05 0.00016230025)
(0.0006630058 8.2203847e-05 0.00037049736)
(0.00082462834 -2.0422876e-05 0.00020333882)
(0.0006446964 5.858558e-05 0.00014079581)
(0.00083254347 -1.7888175e-05 0.00020419864)
(0.00058182206 1.0013429e-05 0.00013637242)
(0.00069808555 2.1855197e-05 0.00016038857)
(0.00071092718 -8.6444397e-07 0.00016936542)
(0.00075056728 -3.4328192e-05 0.00019010573)
(0.00071591186 2.8452653e-05 0.00016043749)
(0.00075747315 1.0723756e-06 0.00016693998)
(0.00070476206 -2.4874777e-06 0.00016678972)
(0.00063776769 4.350081e-05 0.00013598868)
(0.00077056804 -2.3479317e-05 0.00019253363)
(0.00048142437 6.8352827e-05 0.00017494944)
(0.00064497101 3.5202442e-05 0.00014335087)
(0.00068857536 9.299081e-06 0.00016107732)
(0.00065921376 1.6737589e-05 0.00015346781)
(0.00078562771 -9.8563794e-06 0.00018477988)
(0.00053771392 4.3334785e-05 0.0001146916)
(0.00052108153 5.1471184e-05 0.00010497229)
(0.00075529789 -1.6822098e-05 0.00018429555)
(0.0005636067 2.3382491e-05 0.00013051388)
(0.00060486927 4.9507175e-05 0.0001394332)
(-0.00016958076 -2.9320062e-05 -8.438706e-05)
(0.00060847528 2.8259789e-05 0.0001412941)
(0.00071678401 -2.558814e-05 0.00017665077)
(0.00059128761 4.8461647e-05 0.00013302195)
(0.00074932816 -4.0024376e-05 0.00020147763)
(0.00082134046 -3.6369116e-05 0.00020689912)
(0.00079228318 -7.664212e-05 0.00020687887)
(0.00024920487 1.519302e-06 0.00016785913)
(0.00060824127 2.5775319e-05 0.00014687791)
(0.00058075924 3.2813587e-05 0.00013159921)
(0.00059853265 1.910406e-05 0.00014214668)
(0.00078507423 -5.2159443e-05 0.00018889304)
(0.00064730261 5.5621129e-06 0.00016415034)
(0.0005704511 4.0606644e-05 0.00012565863)
(0.0004488972 4.4017225e-05 0.00010020221)
(0.00081320822 -5.5912011e-05 0.00021689766)
(0.0005634175 2.1836186e-05 0.00012935266)
(0.00063236646 -2.1572354e-05 0.00015103582)
(0.00051402374 8.7769162e-06 0.0001310843)
(0.00011667574 1.8749262e-05 0.00011886138)
(0.00048301999 2.4035102e-05 0.00012147714)
(0.00060446387 2.2027204e-05 0.00015770399)
(0.00079605354 -1.4279417e-05 0.00019844064)
(0.00081558023 -4.7520773e-05 0.00021053579)
(0.00072448302 -3.255693e-05 0.0001853198)
(0.00054235102 -3.2611921e-05 0.00018675341)
(0.00060510345 1.6770511e-05 0.0001623622)
(0.00059952458 4.0421047e-05 0.00016298691)
(0.00073668713 8.3318281e-05 0.00030430246)
(0.00059550536 1.2701569e-05 0.00016112679)
(0.00070498443 6.8749101e-05 0.0002641537)
(2.0335109e-05 4.0342628e-05 1.5971412e-05)
(0.00076777192 -3.3707639e-05 0.00020051374)
(0.00061175379 4.4322637e-06 0.00017792883)
(0.00069896386 -4.1810709e-05 0.00019163072)
(0.0006942462 -1.2071545e-05 0.00017058491)
(0.00067390723 2.7092215e-06 0.00016583495)
(-9.3071857e-05 -4.1430459e-05 -8.983553e-05)
(-0.00019723337 -5.3680996e-05 -0.00012182456)
(0.00083268869 -6.9811154e-05 0.00022227366)
(0.00068102133 -1.3980201e-05 0.00015428441)
(0.00083403293 -6.7098863e-05 0.00023590295)
(0.00065534406 7.5616776e-06 0.00015573857)
(0.0007280202 -4.2731662e-05 0.00018617358)
(0.00064315913 -3.4792401e-05 0.00016267086)
(0.00056246703 1.6776051e-05 0.00013269411)
(0.00082272487 -5.9119964e-05 0.00022158441)
(0.00073034527 -5.9456891e-05 0.00019486956)
(0.00084016344 -6.2042105e-05 0.00024069643)
(0.00042572102 -8.5339259e-05 7.1752596e-05)
(0.00065738688 1.154729e-05 0.00016499215)
(0.00082397486 -6.9411385e-05 0.00022692945)
(0.00082721175 -6.7108261e-05 0.00022308548)
(0.00073214003 -5.2514795e-05 0.00021672341)
(0.00075979974 -4.0407329e-05 0.00020729097)
(0.00072472721 -5.4903635e-05 0.00021413972)
(0.00055431138 7.3241096e-05 0.00011782492)
(0.00084993689 -7.2718513e-05 0.00025682236)
(0.00068770094 -2.0173407e-05 0.00017685748)
(0.00062729213 0.00010464446 0.0001332038)
(0.00058437636 -4.7425998e-05 0.0001928059)
(0.0005781417 7.1103067e-05 0.00011939852)
(0.00046112806 3.9144728e-05 0.00014642123)
(0.00042394626 -9.8859015e-05 8.2694626e-05)
(0.00085677129 -7.9536528e-05 0.00026462302)
(0.00085331074 -7.5855278e-05 0.00026300627)
(0.00062768349 -9.8990103e-06 0.00015989431)
(0.00073543067 -7.3365333e-05 0.00025344769)
(0.00064801246 6.3559176e-05 0.00020019235)
(0.00066315751 -5.3004011e-06 0.00016929164)
(0.00075770842 -8.8885289e-05 0.00026426358)
(0.00056969572 6.4224978e-05 0.00011596676)
(0.00057407791 7.5962857e-05 0.00011494673)
(0.00073779454 -6.5053129e-05 0.00024010894)
(0.00073857726 -7.9541714e-05 0.00025627002)
(0.00070290872 -5.9730976e-05 0.00021560649)
(0.00044825866 5.0931316e-05 8.8435264e-05)
(0.00061381272 -4.8472482e-05 0.00020507773)
(0.00055177932 -3.0895885e-05 0.00018466005)
(0.00073333257 -7.8837812e-05 0.000256136)
(0.00073326586 -6.394399e-05 0.00023445753)
(0.00069134837 2.6261847e-05 0.00023993627)
(0.00048737731 -3.8157173e-05 0.00015557237)
(0.00047941567 -3.4830752e-05 0.00013925886)
(0.0008046558 -4.9229426e-05 0.00019961524)
(0.00056822359 7.2825008e-05 0.00011494105)
(0.0008342065 -6.2948833e-05 0.00021550147)
(0.00080647484 -7.712484e-05 0.00023993335)
(0.00072584526 -9.1176936e-05 0.0002700686)
(0.00077061665 -7.451972e-05 0.00023734951)
(0.00070591491 -3.684072e-05 0.00020660338)
(0.00066697717 -7.8322089e-05 0.0002460082)
(0.00069216622 -3.1384213e-05 0.00018799075)
(0.0006327356 -1.4913357e-05 0.00016848451)
(0.00072813681 -6.912078e-05 0.00023674734)
(0.0007572346 -8.2092822e-05 0.00023766834)
(0.00076972974 -9.0475285e-05 0.00027689726)
(0.00052207057 6.1922137e-05 0.00010680473)
(0.00078973653 -4.3652219e-05 0.00024554326)
(0.00054539308 4.417091e-05 0.00011701054)
(0.00065754513 -6.1342994e-05 0.0002377133)
(0.00053735313 -6.7061767e-05 0.00021639465)
(0.00068347845 -7.9719115e-05 0.00027246488)
(0.00088156285 -0.00010928258 0.00033377522)
(0.00076896273 -4.1202362e-05 0.00023583866)
(0.00078359303 -6.4728632e-05 0.00024586099)
(0.00071357335 -3.8180678e-05 0.00020736958)
(0.00045886039 5.1710632e-05 9.9920374e-05)
(0.00053961786 4.9453496e-05 0.0001186778)
(0.00045530154 2.9674901e-05 0.00010828837)
(0.00075217944 -4.4065613e-05 0.0002319264)
(0.00056957825 -5.6164093e-06 0.00015081898)
(0.00078560363 4.0516614e-05 0.00029504337)
(0.00052336477 4.5732332e-06 0.00014142886)
(0.00067855063 -7.3100657e-05 0.00028220685)
(0.00090655763 -0.00011922116 0.00035986714)
(0.00082140859 -0.00010154106 0.00034357033)
(0.00071294324 -7.2473797e-05 0.00020926213)
(0.00058431988 3.3794696e-05 0.00015468202)
(0.00056219845 -4.3758644e-06 0.00016070655)
(0.00067749483 -7.9241204e-05 0.00028436445)
(0.00078032385 -9.3567574e-05 0.00028485007)
(0.00064080293 -6.97452e-05 0.0002617128)
(0.00065318131 -6.5113701e-05 0.00024127516)
(0.0003244958 -0.00011287678 4.66449e-05)
(0.00091609395 -0.00011247565 0.00035947807)
(0.00075164249 -6.0602738e-05 0.00025527501)
(0.00083236396 -0.00010113791 0.00036457273)
(0.00065980553 -2.7610458e-06 0.00016996888)
(0.00036277925 -0.00010463692 6.0495157e-05)
(0.00028232494 3.3307994e-06 0.00016432293)
(0.00064256033 -6.4555128e-05 0.0002686568)
(0.00053589056 7.7796754e-05 0.00010573421)
(0.00052453759 1.2597059e-05 0.00015430129)
(0.00070915423 -6.6108184e-05 0.0002788312)
(0.00083643799 -8.9920533e-05 0.00036748459)
(0.00075759202 8.5074455e-07 0.0001714287)
(0.00084249148 -9.339881e-05 0.00037299152)
(0.00061786073 0.00010001678 0.00012645822)
(0.00082773265 -8.5156511e-05 0.00024702406)
(0.00075571033 -6.4514872e-05 0.00027384265)
(0.00076513594 -9.7590389e-05 0.0003018768)
(0.00060704386 -6.80046e-06 0.000180563)
(0.00056030037 -3.1086312e-05 0.00018839934)
(0.00080917488 -9.9611747e-05 0.0003546887)
(0.00081591083 -9.6758864e-05 0.0003497897)
(0.00084842699 -9.7030689e-05 0.00027082064)
(0.00070081131 -7.0960078e-05 0.00028290855)
(0.00057143914 7.4977311e-05 0.00018568641)
(0.00072163879 -9.0202504e-05 0.00021983075)
(0.00040426391 -4.2462808e-05 0.0001244803)
(0.00081938827 -9.1771965e-05 0.00038031011)
(0.00073125833 -8.1743974e-05 0.00033476355)
(-5.9769064e-05 1.5637867e-05 7.407621e-06)
(0.0006617333 -1.5053492e-05 0.00017553857)
(0.00072787987 -8.8255365e-05 0.00034127252)
(0.00071373073 -8.091057e-05 0.00032730922)
(0.00051384744 6.8256146e-05 9.8085981e-05)
(0.00066235968 -1.9314292e-05 0.00018923972)
(0.00082211436 -9.7100305e-05 0.00035297317)
(0.0007894589 -5.2331664e-05 0.00024766982)
(0.00081678827 -9.6498626e-05 0.00037721803)
(0.00063762405 -6.6260412e-05 0.00026828685)
(0.00079618545 -9.2030655e-05 0.00038001232)