/*--------------------------------*- C++ -*----------------------------------*\
  =========                 |
  \\      /  F ield         | OpenFOAM: The Open Source CFD Toolbox
   \\    /   O peration     | Website:  https://openfoam.org
    \\  /    A nd           | Version:  11
     \\/     M anipulation  |
\*---------------------------------------------------------------------------*/
FoamFile
{
    format      ascii;
    class       volVectorField;
    location    "10000";
    object      wallShearStress;
}
// * * * * * * * * * * * * * * * * * * * * * * * * * * * * * * * * * * * * * //

dimensions      [0 2 -2 0 0 0 0];

internalField   uniform (0 0 0);

boundaryField
{
    wall-fluid_domain
    {
        type            calculated;
        value           nonuniform List<vector> 
42723
(
(-0.00013201364 1.4277294e-06 0.0001167937)
(-0.00010651735 -8.4364213e-07 0.00010188562)
(-7.6642739e-05 3.0836261e-07 8.0516874e-05)
(-0.00011620249 5.6499895e-06 0.00011770886)
(-0.00010127344 -2.1754397e-06 9.6137122e-05)
(-9.1993561e-05 1.8988684e-06 8.8267503e-05)
(-0.00010259148 6.0336887e-07 9.2356803e-05)
(-0.00010500697 -7.254807e-07 9.5920942e-05)
(-0.00010053573 -1.5609032e-06 9.5863372e-05)
(-0.00014333597 1.3349986e-05 0.00013955941)
(9.5716847e-06 -5.6446575e-06 -8.1465958e-06)
(-8.9174475e-05 1.9410205e-06 9.2491991e-05)
(-0.00014691285 9.4554735e-06 0.00013730923)
(-9.699929e-05 -2.6158421e-06 0.00010332047)
(-0.00013354454 6.9443152e-06 0.0001187525)
(-5.8275175e-05 -2.3442944e-05 2.8240768e-05)
(-0.00011782129 -9.9766117e-08 0.00010976005)
(-8.2584795e-05 -7.5289728e-06 8.0994967e-05)
(-0.00010789532 -3.2260168e-06 0.00010266295)
(-0.00010626253 -1.4632316e-07 0.00010987222)
(-0.00020731427 -4.5413791e-05 0.0001314593)
(-9.0995026e-05 1.6272919e-06 8.8883876e-05)
(-0.00014238852 6.9724651e-06 0.00012651074)
(-9.2911646e-05 -1.8049686e-07 9.2147971e-05)
(-7.8822175e-05 -7.5726898e-07 7.9389747e-05)
(-8.8374628e-05 -2.8164603e-06 9.4175979e-05)
(-0.00015798168 -1.1106933e-05 0.00012250773)
(-0.0001137951 6.8730973e-08 0.00010992997)
(-0.00010695397 -7.4455982e-07 0.00011159099)
(-0.00011601191 2.1194401e-07 0.0001108065)
(-2.4121974e-05 7.1811349e-06 1.7768385e-05)
(-0.00010940281 -5.5138053e-06 0.00011553225)
(-9.2267596e-05 -4.3718631e-06 8.9776797e-05)
(-2.2010555e-05 4.375882e-06 1.4712812e-05)
(-9.6512583e-05 -3.9318075e-06 0.00010169699)
(-0.00011660452 2.2942606e-06 0.00010803715)
(-0.00012106475 2.5433529e-06 0.00011051879)
(-0.00011027867 -9.8822737e-07 0.00010726658)
(-9.5998101e-05 1.0083159e-06 9.2085839e-05)
(-0.00012491921 -2.7088553e-06 0.00011291231)
(-8.7357485e-05 -2.9047134e-06 9.0348722e-05)
(-0.00010150541 5.6356058e-09 9.886045e-05)
(-9.8003615e-05 -3.6547274e-07 9.4817875e-05)
(-0.00010158534 -2.4555985e-06 9.6862935e-05)
(-1.9079064e-05 4.5245248e-06 1.5072926e-05)
(-7.4330742e-05 -8.2342047e-07 6.8716866e-05)
(-9.490722e-05 2.8025433e-06 0.00010341532)
(-0.00011459331 -5.459791e-07 0.00011459553)
(-0.00010461408 9.1019736e-07 9.4134415e-05)
(-9.4298192e-05 -5.3373306e-08 8.7812463e-05)
(-0.00012739068 9.6760693e-07 0.0001130306)
(-9.7707665e-05 -3.1336711e-07 9.4082747e-05)
(-9.114303e-05 -1.133957e-06 9.0863956e-05)
(-0.00013506549 5.7247198e-06 0.00013694014)
(-2.0054924e-05 5.8269288e-06 1.8705772e-05)
(-7.6924568e-05 -6.9529475e-07 7.4308154e-05)
(-0.00011166425 5.7858979e-06 0.00011274426)
(-0.00013396072 3.2513816e-06 0.00011866361)
(-9.381088e-05 -6.4895616e-07 8.9863291e-05)
(-0.00010207578 9.7504967e-08 0.0001010322)
(-1.9780534e-05 8.2961817e-07 1.6004063e-05)
(-8.5600508e-05 9.5129317e-07 8.5888369e-05)
(-8.0222584e-05 7.4498455e-07 8.2669169e-05)
(-0.00013841887 -6.8791248e-06 0.00010416454)
(-0.00015427957 2.3387389e-06 0.00011075593)
(-8.3821978e-05 1.1925953e-06 8.6500055e-05)
(-0.00010036163 1.1249538e-06 9.1631657e-05)
(-1.3036333e-05 -4.5555533e-07 1.6028002e-05)
(-0.00013701402 3.9154428e-06 0.00013308673)
(-9.9466014e-05 3.3531602e-06 9.7943061e-05)
(-9.8623691e-05 -9.1392436e-07 9.3369546e-05)
(-8.1313688e-05 -2.4002492e-07 8.0387077e-05)
(-8.9042066e-05 -1.9385439e-06 8.5765875e-05)
(-9.9046395e-05 4.814863e-06 0.00010481642)
(-8.2881999e-05 -5.2924398e-07 8.1752147e-05)
(-8.9960691e-05 -1.5899044e-06 8.6020176e-05)
(-9.7512654e-05 -1.6349069e-06 9.7018859e-05)
(-0.00010966006 5.55043e-06 0.00010926049)
(-9.7379378e-05 -2.6395418e-06 9.2686125e-05)
(-9.9488804e-05 4.6392582e-07 0.00010173091)
(-9.3460241e-05 2.9511089e-07 8.8127398e-05)
(-8.8414306e-05 -4.7869405e-07 8.5792501e-05)
(-0.00010228773 3.7031297e-07 9.5242636e-05)
(-0.00010008501 -1.276778e-06 9.4495061e-05)
(-9.2114487e-05 8.6142936e-07 8.6787016e-05)
(-8.0464381e-06 -7.8919309e-06 1.9657738e-05)
(-0.00010861668 5.5659206e-07 0.00010530286)
(-9.7615942e-05 -5.3049815e-07 8.8331422e-05)
(-8.5323968e-05 -1.1986547e-06 8.6955795e-05)
(-9.0604086e-05 -3.8082555e-07 8.821294e-05)
(-0.00010522282 2.7815199e-06 9.4528347e-05)
(-0.00010622636 -2.6521399e-06 9.9612096e-05)
(-7.0882646e-05 -4.1464512e-07 7.2783779e-05)
(-0.00015557652 1.7338725e-06 0.00010933411)
(-0.0001649481 4.306798e-06 6.8816754e-05)
(2.4274641e-05 7.6811685e-07 -1.9834291e-05)
(-9.3264685e-05 -1.2630576e-06 8.7726757e-05)
(-7.3223507e-05 -2.4586657e-06 7.5639045e-05)
(-9.6358894e-05 -2.2552766e-06 8.8553532e-05)
(-8.3797417e-05 -1.282563e-06 8.641979e-05)
(-9.6615347e-05 -5.8552703e-06 9.2288758e-05)
(-8.8602183e-05 -2.578161e-06 8.5448217e-05)
(-0.00014819895 -8.7690209e-07 0.00010547882)
(-2.3185617e-05 8.1263482e-06 3.4116012e-05)
(-9.7182211e-05 -4.9958882e-07 9.1350838e-05)
(-9.1355358e-05 -2.6700845e-06 9.8588083e-05)
(-2.4654862e-05 8.1260579e-06 3.4719585e-05)
(-7.0636554e-05 -3.9063141e-06 6.7149984e-05)
(-0.00014371252 2.0803379e-06 9.6705862e-05)
(-4.4688078e-05 5.5058629e-06 3.2734954e-05)
(-8.9900185e-05 -4.4589636e-06 8.9843145e-05)
(-0.00016218316 -1.1920107e-06 0.00010178941)
(-0.00015105106 1.0331594e-05 0.0001044879)
(-9.3794547e-05 4.3516889e-07 9.14095e-05)
(-9.1694324e-05 -2.0518005e-06 9.0634911e-05)
(-9.4346962e-05 -2.1470226e-07 9.5388088e-05)
(-0.00018452756 8.9031807e-07 8.3224837e-05)
(-9.2927523e-05 -2.295664e-06 8.8992475e-05)
(-7.30671e-05 -9.4409201e-07 8.1263402e-05)
(-1.0498767e-05 -5.1663147e-06 1.7720854e-05)
(-8.8841282e-05 3.0990973e-07 5.8986866e-05)
(-8.529318e-05 1.308144e-07 8.347045e-05)
(-7.4027876e-05 -3.0547813e-06 7.725408e-05)
(-0.00018178146 -2.1014788e-05 0.00014049313)
(-9.4441963e-05 -2.1407513e-06 9.2115667e-05)
(-9.597742e-05 4.5300621e-07 9.2491912e-05)
(-0.00022165762 -3.3805368e-05 0.00014533585)
(-9.6964846e-05 -7.6118723e-07 8.9722473e-05)
(-0.00014678621 2.0652792e-06 9.6300293e-05)
(-7.1859643e-05 -1.7500752e-06 7.5531361e-05)
(-0.00010131151 -7.5113205e-07 9.6430179e-05)
(-9.1366686e-05 -2.893128e-06 8.6698871e-05)
(-0.00011382602 -8.051642e-07 0.0001098644)
(-0.00015926804 1.6574236e-05 5.5973628e-05)
(-0.00010148429 -8.580824e-07 9.4169747e-05)
(-8.1361733e-05 -9.6117558e-07 8.3093417e-05)
(-8.9133091e-05 -2.5695307e-06 8.70095e-05)
(-8.9266329e-05 -4.0095917e-07 8.578098e-05)
(-0.00010186399 1.827541e-06 9.9448335e-05)
(-0.00011406587 6.7409002e-07 0.00010528562)
(-0.000182813 6.8401823e-06 7.6244707e-05)
(-0.00015119321 2.7774723e-05 5.0537422e-05)
(-9.3300414e-05 -2.1634598e-06 8.8337772e-05)
(-0.00016734216 2.6327585e-05 5.6485819e-05)
(-0.00010845387 4.8684915e-07 0.00010083434)
(-8.7037717e-05 -2.3461152e-06 8.5919558e-05)
(1.2169952e-05 -9.3090071e-06 -1.0760695e-05)
(-0.00017158595 1.1604851e-06 7.6731272e-05)
(-0.00012799624 3.8748291e-06 0.00011495846)
(-9.0978164e-05 -1.6981479e-06 9.0078707e-05)
(-8.7973975e-05 -6.3862595e-07 8.4246422e-05)
(-8.5443906e-05 -1.0442808e-06 8.3798612e-05)
(-0.00010018477 -2.6748569e-06 9.350472e-05)
(-7.2561794e-05 -2.2333009e-06 7.028026e-05)
(-0.00011487885 -2.7679104e-06 0.00010074168)
(-9.0626439e-05 -1.2018803e-07 8.4724961e-05)
(-9.4107225e-05 -2.5166942e-06 8.8613283e-05)
(-8.5736897e-05 -2.635205e-06 8.2620161e-05)
(-0.0001899835 6.1282796e-06 8.1634165e-05)
(-0.00010867697 -1.9041688e-06 9.9888886e-05)
(-7.2990586e-05 -1.9940289e-06 6.997011e-05)
(-0.00012064649 -4.2902047e-06 8.4866383e-05)
(-9.9190738e-05 1.5748028e-06 9.1174924e-05)
(-8.2943727e-05 1.0851026e-08 7.72879e-05)
(-6.7764076e-05 6.6412799e-07 6.5485052e-05)
(-0.000105511 1.3091085e-07 9.5272198e-05)
(-7.8550465e-05 -6.009669e-07 7.5341329e-05)
(-9.9255016e-05 -1.6608005e-06 9.2369072e-05)
(-2.4644301e-05 2.8805511e-06 3.0779722e-05)
(-0.00020481806 -2.3995654e-05 0.00013429675)
(-8.4505251e-05 -1.1819051e-06 8.1347224e-05)
(-3.6395449e-05 -3.5951009e-06 3.7259522e-05)
(-4.9915374e-05 7.4392959e-06 4.3206527e-05)
(-0.00010459149 2.0011923e-06 0.00010511693)
(-7.6877716e-05 2.8923199e-06 8.202057e-05)
(-8.0221289e-05 -4.0530719e-07 7.6704988e-05)
(-0.00010995461 -1.2780152e-08 9.8947092e-05)
(-7.7341699e-05 -1.0393085e-06 7.3953111e-05)
(-3.5750879e-05 9.7714112e-06 2.0449914e-05)
(-8.5901214e-05 -1.7731962e-06 8.364137e-05)
(-7.5657613e-05 -1.3633613e-06 7.328192e-05)
(-8.4556429e-05 -7.7214932e-08 8.1149359e-05)
(-3.1302078e-05 1.1755102e-05 1.9120822e-05)
(-9.8781097e-05 6.7727046e-07 8.859086e-05)
(-9.9237799e-05 -1.5669312e-06 0.00010085257)
(3.3422689e-05 1.2533613e-05 -2.3627238e-05)
(-0.00011195488 3.0514187e-06 0.00010278049)
(-3.7512257e-05 7.3644255e-06 2.168693e-05)
(-6.5244014e-05 -1.5316846e-06 6.3693528e-05)
(-9.3201535e-05 3.9861068e-06 8.662912e-05)
(-2.8500324e-05 3.8578449e-06 3.2363849e-05)
(-0.00014345212 1.2824851e-05 9.1294432e-05)
(-8.0457229e-05 -1.8386523e-06 8.2019118e-05)
(-9.027295e-05 -1.5633363e-06 8.7464799e-05)
(-9.8769674e-05 -4.7844995e-07 9.3242781e-05)
(-9.6360079e-05 -2.989273e-06 9.7784012e-05)
(-7.679878e-05 -2.8963916e-06 8.0412787e-05)
(-8.6128656e-05 1.3413175e-07 8.5036411e-05)
(-0.00019466901 -3.9013404e-05 0.00012087888)
(-0.00011189242 4.5435799e-07 0.00011139593)
(-8.3512626e-05 -6.6373652e-08 8.1565201e-05)
(-0.00011979667 5.4322348e-07 0.00010215777)
(-0.00011505334 9.9942089e-07 0.00010829922)
(-3.6187101e-05 1.4678617e-06 3.1857889e-05)
(-0.00010774043 3.8524628e-06 6.6400918e-05)
(-0.00010124703 -3.542673e-07 8.9481984e-05)
(-9.1873893e-05 -3.4983886e-06 9.3082533e-05)
(-9.692051e-05 -4.9391177e-06 9.4855973e-05)
(-9.665666e-05 2.9131754e-06 9.5128841e-05)
(-0.00012541544 -3.4242937e-07 0.00010943695)
(-0.0001084111 2.7626712e-06 0.0001012106)
(-0.00013537306 1.0730556e-05 0.00013004597)
(-7.6980021e-05 6.057925e-06 5.9455216e-05)
(-0.00011153377 9.4135145e-07 0.00010919212)
(-2.5872347e-05 -2.1670307e-06 2.7459578e-05)
(-2.8705287e-05 2.294569e-06 3.1636369e-05)
(-0.00012060841 1.2189943e-07 0.00011273647)
(-0.00011892524 4.2780465e-06 0.00010933206)
(-9.8082488e-05 -4.5076988e-07 8.9388072e-05)
(-0.00011051619 8.4741933e-06 7.0289806e-05)
(-0.0001211832 7.3513997e-07 0.00011290284)
(-0.00012777216 1.3253244e-06 0.00011471661)
(2.1175176e-05 -1.6716541e-05 -2.0817138e-05)
(-0.00014612734 6.4626089e-06 0.00013583047)
(2.1435418e-05 2.290321e-05 -2.5496366e-05)
(-0.00020923441 -1.635921e-05 0.00016899693)
(-0.00012947377 2.3188179e-06 0.00011618125)
(-0.00010503985 1.1566843e-06 0.00010746613)
(-0.00010124056 9.302566e-07 9.632991e-05)
(-9.8552069e-05 2.3549673e-06 9.1762833e-05)
(-0.00012062156 2.6643847e-06 0.00011764407)
(-0.00010717638 1.12785e-06 0.00010238611)
(-2.4956547e-05 1.1807142e-05 1.6114384e-05)
(-9.6288692e-05 1.1957949e-06 9.4187922e-05)
(-0.00010961075 -3.5719792e-06 0.00010278899)
(-0.00011644676 2.8415368e-06 0.00010870992)
(-0.00013497202 1.3684373e-06 0.00012634518)
(-0.00011634231 -1.4831912e-05 6.5090193e-05)
(-0.00012605749 1.8041933e-06 0.00012261513)
(-0.00015962839 8.2672599e-06 0.00015268799)
(-0.00012962429 1.0647856e-06 0.0001230041)
(-0.00011029923 3.6701619e-07 0.00010724257)
(-0.00011037356 -2.8051831e-06 6.1568021e-05)
(3.7927901e-05 1.2527648e-06 -3.5113638e-05)
(-5.8696869e-05 9.7585742e-06 4.5081787e-05)
(-9.1372473e-05 -2.1603627e-06 8.3575688e-05)
(-0.00011693359 -3.5443495e-06 0.00010555835)
(-8.9937702e-05 -5.753855e-07 8.1566142e-05)
(-0.0001366963 -2.1451458e-05 6.453182e-05)
(-9.5268717e-05 1.1080971e-05 6.1312075e-05)
(-0.00010821973 -1.9828319e-06 0.00010302278)
(-0.00015079476 8.687875e-06 0.00014847511)
(-8.9007135e-05 8.1582492e-06 5.604048e-05)
(-0.00011817656 -5.6152245e-07 0.00011960766)
(-0.00010635695 -9.4606933e-09 9.9641158e-05)
(-0.00010054755 -3.9617095e-06 9.5277187e-05)
(-0.00013287905 5.6406781e-06 0.0001337899)
(-0.00013466453 5.1594858e-06 0.00013516675)
(-0.00012798141 -2.8890806e-07 0.00012416006)
(-0.00011651174 -3.1259522e-06 0.00010699068)
(-0.00010381454 -8.7994494e-07 0.00010024458)
(-8.7384162e-05 4.0197293e-06 6.0676633e-05)
(-0.00012076615 -6.3611825e-06 7.9569786e-05)
(-6.3351744e-05 -3.027801e-05 3.4376188e-05)
(-0.00011267169 -6.2871094e-07 0.00011673602)
(-0.00010888412 -2.8685151e-06 0.00010350318)
(-9.680115e-05 -1.2418917e-07 0.0001029942)
(-0.00014585236 -3.6003049e-05 7.5631815e-05)
(-9.5491968e-05 -1.7108386e-06 9.6517017e-05)
(-0.00011451697 -2.7460696e-06 0.00011328133)
(-0.00017330729 -1.0457855e-05 0.00013606622)
(-9.0098597e-05 -1.7298346e-06 9.7937575e-05)
(-0.0001145118 -2.9784838e-06 0.00010380011)
(-0.00010122715 -3.6860961e-07 0.00010111886)
(-0.00012206746 4.4377478e-07 0.00010763435)
(-0.00014449037 1.4847271e-05 0.00012034785)
(-8.437896e-05 1.7813207e-07 8.2171826e-05)
(-0.00017272247 -1.0352541e-05 0.00013237148)
(-0.00011520244 -2.6945592e-06 0.00010143994)
(-0.00010081203 -4.819316e-06 0.00010190903)
(-3.9827929e-05 -5.2621897e-06 4.1164504e-05)
(-0.00010647627 -3.4567054e-06 0.00010166773)
(-4.074929e-05 7.867498e-07 4.1508069e-05)
(-0.00010868022 -2.6789769e-06 0.00010442581)
(-0.00018084335 -2.4011111e-05 0.0001277324)
(-0.00016686783 -8.78268e-06 9.07221e-05)
(-9.017712e-05 -3.6034857e-06 8.5590928e-05)
(-2.2137187e-05 8.3979994e-06 8.7029505e-06)
(-0.00010473064 1.7966e-06 9.6553997e-05)
(-0.0001152949 3.3652526e-06 0.00010543848)
(-9.3851826e-05 1.1920586e-06 8.1814653e-05)
(-0.00010245365 -7.295136e-06 9.8623741e-05)
(-0.0001209901 1.7602062e-06 0.00010899453)
(-0.00010756747 -5.63064e-06 9.9269188e-05)
(-0.00010599506 -7.0559331e-06 0.00010282191)
(-0.00010577803 -2.3662566e-05 4.9226589e-05)
(-9.9922868e-05 -1.7640034e-06 9.2579638e-05)
(-8.503711e-05 -4.3602878e-06 8.3133607e-05)
(-3.4615128e-06 -2.26032e-06 3.1763437e-06)
(-0.00011629871 -2.034508e-06 0.00010517093)
(-9.7260273e-05 1.1564863e-07 9.0378428e-05)
(-0.00010847222 -4.5007947e-07 9.7000704e-05)
(-0.0001104691 -3.0698389e-05 5.2561017e-05)
(-9.2356883e-05 -4.1138177e-06 8.9632047e-05)
(-8.9299216e-05 -4.1096026e-06 8.6468974e-05)
(-0.00011182065 -2.2537882e-07 9.9588114e-05)
(-0.0001172192 2.3657049e-06 0.00011520404)
(-9.5092317e-05 -3.9664706e-06 8.7022126e-05)
(-0.00011303687 -2.253727e-06 0.00010100112)
(-9.997647e-05 -5.681435e-06 9.7336519e-05)
(-9.6670031e-05 -3.431468e-06 8.798677e-05)
(-8.9020344e-05 -3.3439042e-06 8.3576039e-05)
(-0.00010276431 -2.2268411e-06 9.7700421e-05)
(-0.00010777666 -2.5028203e-06 0.00010155717)
(-8.5640499e-05 -1.1507427e-06 7.8366581e-05)
(-4.4210622e-05 7.1161418e-06 3.2868325e-05)
(-0.00010850492 -1.1841653e-06 9.9190401e-05)
(-5.1184029e-05 8.6764356e-06 3.7216857e-05)
(-0.00010532957 -2.109324e-06 0.00010036053)
(-8.7491356e-05 -3.1125201e-06 8.7391294e-05)
(-9.7108054e-05 -2.8051738e-06 9.7024742e-05)
(-9.61583e-05 1.9940168e-06 9.3422306e-05)
(-9.9645747e-05 -1.0843599e-06 9.6602842e-05)
(-4.8572684e-05 8.3228944e-06 3.6745006e-05)
(-0.00011346676 -2.770463e-07 0.00010285352)
(-0.00010692908 -3.9303783e-06 0.00010563513)
(-0.00012656023 2.0670214e-06 0.00011731086)
(-0.00011156505 -2.2907751e-06 0.00010044958)
(-0.00011675343 4.94802e-06 0.00011189383)
(-0.00010979273 -2.9897417e-06 0.00010519541)
(-0.00010560821 -5.1820293e-06 0.00010054611)
(-0.00011879733 -2.6023074e-06 0.00011040588)
(-0.00011366985 -5.954136e-06 0.00010998379)
(-0.00010738048 -5.2196692e-06 0.00010504849)
(-0.00010469402 -5.3395607e-06 9.6639727e-05)
(-0.0001065401 -5.9113805e-06 9.841612e-05)
(-0.00019993213 9.7822185e-06 0.00020472231)
(-0.00012344373 4.7889904e-06 0.00011394637)
(-0.00010811054 -4.7581749e-06 0.00010568198)
(-9.0917272e-05 -7.1991671e-06 8.8296925e-05)
(-4.4933225e-05 3.8322756e-07 3.9806727e-05)
(-0.00011291457 -2.5366304e-06 0.00010593609)
(-0.00010092009 -3.7848274e-06 9.8066423e-05)
(-0.0001043972 -3.0446354e-06 9.8809954e-05)
(-9.0146889e-05 -3.6951514e-06 8.9321202e-05)
(-0.00011189327 -3.4922367e-06 0.00011111989)
(-0.00010189056 -4.4039924e-06 0.00010074147)
(-0.00011033809 -5.6684866e-06 0.000102761)
(-0.00010475731 -2.875077e-06 9.871751e-05)
(-0.00011779959 -4.8755205e-06 0.00010720546)
(-0.00011278526 -7.8345811e-06 0.00010430244)
(-0.00016992066 -5.7016829e-06 9.1902987e-05)
(-0.00011093499 -8.552625e-06 0.0001070974)
(-8.4586709e-05 -4.5481383e-06 8.3460918e-05)
(-9.9358448e-05 -7.3901893e-06 9.9872464e-05)
(-0.00010776063 -1.7171536e-06 0.00010937665)
(-0.00011449548 2.5737405e-06 8.2344273e-05)
(-0.00010957631 -3.0638979e-06 0.00010423823)
(-0.00010131418 -3.0570515e-06 9.7933783e-05)
(-0.0001260545 -2.1483544e-05 6.0967051e-05)
(-8.4784986e-05 -4.5573787e-06 8.5878914e-05)
(-0.00015508268 2.2440871e-06 0.00014798706)
(-0.00010133285 -3.0442447e-06 9.8787799e-05)
(-0.00011969637 -1.7512634e-06 0.00011232972)
(-0.00010812529 -3.9181443e-06 0.00010823483)
(2.389359e-05 1.7159535e-05 -3.328078e-05)
(-0.00011843785 2.6517258e-06 0.00011196983)
(-0.00013474763 1.9663677e-06 0.000119993)
(9.0305693e-06 -9.2460014e-06 -1.0056032e-05)
(-0.00016440009 1.6745037e-05 0.00014184697)
(-0.00011037518 5.9480569e-07 9.6922489e-05)
(-7.3160239e-05 2.0306984e-06 5.6259921e-05)
(-0.00011518851 3.2877994e-06 0.00010543067)
(-0.00010509489 2.7248132e-06 9.53233e-05)
(-0.00010745461 -2.1674041e-07 9.5348642e-05)
(-0.00011384257 4.2526563e-06 0.00010052789)
(-0.00012252001 3.6674501e-06 0.00010862066)
(-0.00012388629 5.9072747e-07 0.00010420966)
(-0.00011872502 6.7111006e-06 0.00010617688)
(-9.8874911e-05 -4.1232064e-05 4.5912223e-05)
(-0.00012676368 3.4512037e-06 0.00012082397)
(-0.00012853516 3.1648613e-06 0.00010650354)
(-2.8585859e-05 1.0675645e-05 2.1490042e-05)
(-0.00012089474 4.0775703e-06 0.00010533656)
(-0.00011270421 4.8510199e-06 9.9775105e-05)
(-0.00019750576 1.5358595e-05 0.00020736839)
(-0.00017261404 -1.7638084e-05 0.0001376525)
(-0.0001617176 -8.4033195e-06 0.00012116942)
(-0.00011954201 4.4297212e-06 0.00010617191)
(-0.0001620823 -4.3432084e-06 9.5739897e-05)
(-0.00021128867 -2.6277584e-05 0.00014183402)
(-0.00011394729 4.6804927e-06 0.00010324525)
(-0.00012059522 3.0248424e-06 0.00011011253)
(-0.00012227067 5.562521e-06 0.00011449124)
(-0.00011267754 5.534798e-06 0.00010776083)
(-0.00013718125 3.6813953e-06 0.00012149067)
(-0.00011505156 3.4407846e-06 0.00010828986)
(-0.0001291796 5.6660632e-06 0.00011671531)
(-5.5011622e-06 -6.728761e-06 2.452807e-05)
(-0.00013551975 4.6486101e-06 0.00013249587)
(-0.00010563381 2.9978577e-06 0.00010093799)
(-0.00012174468 7.7403302e-06 0.00011040645)
(-0.00014213571 4.1065028e-06 0.00014188367)
(-0.00011717624 6.6526831e-06 0.00011118806)
(-0.00011967673 6.4720346e-06 0.00010540115)
(-8.8313297e-05 1.1942349e-06 8.1297261e-05)
(-0.00015256683 1.3026228e-05 0.00012144094)
(-0.00011966837 7.8474904e-06 0.00011071347)
(-0.00014267806 6.3021259e-06 0.00013554054)
(-0.00012571712 9.42649e-06 0.00011939397)
(-0.00014480605 3.8175764e-06 0.00013484661)
(-0.00012326363 7.8079679e-06 0.00011149895)
(-0.00013157199 8.2782532e-06 0.0001176188)
(-0.00013463604 7.5807533e-06 0.00012712162)
(-0.00012554228 1.0330063e-05 0.00011568735)
(-0.00015109366 4.0745028e-06 0.0001364761)
(-0.00012808472 7.4979315e-06 0.00011475008)
(-0.00014123756 3.9551418e-06 0.00012847782)
(-0.00015171097 2.9959064e-06 0.00013722031)
(-0.00012925523 5.5402908e-06 0.00011263081)
(-0.00010867026 7.6145869e-06 0.00010477001)
(-0.0001367831 5.9767453e-06 0.00011775518)
(-0.00013165401 6.479057e-06 0.00012065165)
(-9.7560028e-05 -2.4082369e-06 8.7472417e-05)
(-0.00013907137 6.1611612e-06 0.00012825362)
(-0.00011343436 8.1007559e-06 0.00011120199)
(-0.00014535681 1.146207e-05 0.0001325978)
(-0.00013185151 6.7216404e-06 0.00012735537)
(-2.6409249e-05 -8.5781202e-06 3.7444045e-05)
(-4.9977447e-05 -1.7401349e-05 2.4968902e-05)
(-0.00012041494 8.2860841e-06 0.00012541193)
(-0.00013865867 4.5716983e-06 0.00012933076)
(-9.5175102e-05 7.4724739e-07 7.5929506e-05)
(-0.00013588067 8.2781691e-06 0.00012880671)
(-0.00013893245 8.4681697e-06 0.00013783392)
(-0.0001312111 4.725683e-06 0.00012596721)
(-0.00013784123 1.0832755e-05 0.00012740771)
(-2.2991715e-05 -6.1624574e-06 3.9699019e-05)
(-0.00010184679 -4.9612482e-06 9.0664049e-05)
(-0.0001361535 7.6203038e-06 0.00013219474)
(-0.00014177205 7.2690702e-06 0.00013505972)
(-0.00014046672 1.1005377e-05 0.0001291649)
(-0.00014304819 9.6068684e-06 0.00012812951)
(-0.00015385686 1.53963e-05 0.00014196689)
(-0.00014378597 7.4046282e-06 0.00013658547)
(-0.00014489277 1.2152122e-05 0.00013626449)
(-9.6111231e-05 -3.2608842e-06 8.8014996e-05)
(-0.00014157685 1.145573e-05 0.00013508993)
(-0.00010256962 -5.6430735e-06 9.5425485e-05)
(-9.9021092e-05 -2.7251831e-06 9.1967052e-05)
(-0.00011877314 -4.2034866e-06 0.00010427699)
(-5.0872083e-05 -1.9594005e-05 2.4506593e-05)
(-0.0001134299 -5.4553745e-06 0.00010949594)
(-0.00010818199 -6.6934432e-06 0.00010320916)
(-3.8622405e-05 -4.4458611e-06 4.7055483e-05)
(-9.4249848e-05 -1.6455707e-06 9.0784666e-05)
(-0.00012950525 1.0185924e-05 0.0001167074)
(-0.0001414832 1.1018963e-05 0.00013043074)
(-0.00014781513 5.7514594e-06 0.00013619571)
(-0.00014432195 6.4459663e-06 0.00014131308)
(-0.00014294345 6.5152553e-06 0.00013364715)
(-0.00012818937 9.781344e-06 0.00011800391)
(-0.00013191739 3.7080208e-06 0.00012720129)
(-5.7299402e-05 8.3911215e-06 3.8921301e-05)
(-0.00015580191 7.8211226e-06 0.00013879897)
(-0.00011774716 -1.9147108e-06 0.00010837633)
(-0.00011727737 -4.221933e-06 0.00010820382)
(-0.00015069739 1.1552994e-05 0.00013886091)
(-0.00011728956 9.4252032e-06 0.00010636961)
(-0.00015037196 1.6976538e-05 0.0001184767)
(-0.00014923453 5.5000491e-06 0.00014265273)
(-0.00013673494 1.0827562e-05 0.00012496647)
(-0.00013618458 4.2864267e-06 0.00013761373)
(-0.0001706827 -1.6284908e-06 0.00014917276)
(-0.00010237359 -4.6483969e-06 0.00010160933)
(-0.00012855533 6.6147754e-06 0.00010490356)
(-4.0279759e-05 -3.4169524e-06 4.8473186e-05)
(-0.00013763233 2.7173213e-06 0.00013711)
(-4.2022087e-05 6.530673e-06 3.703423e-05)
(-0.00012059435 -2.1891148e-06 0.00011341369)
(-0.00011740353 4.5018931e-06 0.00011176831)
(2.4100955e-05 2.1530872e-05 -3.543771e-05)
(-0.00015566914 6.4054127e-06 0.00015275675)
(-0.00014411169 3.4661132e-06 0.00013766695)
(-4.0681091e-05 3.281033e-06 3.4184729e-05)
(1.61867e-05 -1.5689599e-05 -1.9356325e-05)
(-0.00012722327 7.7229127e-07 0.00012080909)
(-0.00016203618 5.5227629e-06 0.00015475666)
(-0.00011190241 5.0255816e-06 0.00011263785)
(-9.6218164e-05 -6.4742577e-06 9.8107519e-05)
(-0.00014310934 2.017007e-06 0.00013760163)
(-0.0001292748 4.1496801e-06 0.00013123507)
(-0.00011089796 9.644297e-07 0.00010690588)
(-0.00013758157 6.2379485e-06 0.0001304856)
(-7.8821429e-06 -1.4371122e-05 -3.7706748e-06)
(-1.3058266e-05 -8.3868664e-06 3.585751e-05)
(-9.2804569e-06 -1.2714888e-05 1.6667988e-06)
(-0.00014031489 2.3678659e-06 0.00013687839)
(-0.00015334198 2.6484517e-06 0.00015423623)
(-0.00015755131 6.6951592e-06 0.00015297711)
(-0.00011482289 -2.6266469e-06 0.00010948204)
(7.196133e-07 -1.4782779e-05 -4.9721097e-06)
(-0.00013560026 3.008361e-06 0.00013151027)
(-0.00012217174 5.4270877e-06 0.00011907645)
(-0.00014729064 5.2230961e-06 0.0001454645)
(-0.00022855641 2.1466173e-05 0.0002278424)
(-9.3533724e-05 -8.6037977e-07 9.5435518e-05)
(3.4840195e-05 2.8638935e-05 -3.0059519e-05)
(-0.00011149486 -2.6953963e-06 0.00011114157)
(2.8717027e-05 3.0140073e-05 -2.8903849e-05)
(-0.00012620883 5.7144497e-06 0.0001250534)
(-9.8146368e-05 -2.9266413e-06 9.8385337e-05)
(-0.00016235357 1.1334056e-06 0.00015866728)
(-0.00012278763 -1.772142e-06 0.00011242475)
(-0.00020156127 -2.4613343e-05 0.00019571482)
(-0.00011281461 -1.7733987e-06 0.0001086075)
(-0.00012634383 6.3262975e-07 0.00012851463)
(-0.00016716252 2.5783336e-06 0.00016105516)
(-0.00013193095 4.7738108e-06 0.00013401233)
(-0.00015486417 5.4767531e-06 0.00014798778)
(-8.6462373e-05 -2.8596565e-06 8.7177036e-05)
(-0.00014712034 -1.0542967e-06 0.00014668264)
(-0.00012916072 1.3787605e-06 0.00012755102)
(-0.00014441898 2.3806497e-06 0.00014346723)
(-0.00010596436 -2.2626084e-06 9.9914651e-05)
(-0.0001477795 5.3569143e-06 0.0001507981)
(-0.00014305493 3.6682063e-06 0.0001416628)
(-8.4097425e-05 1.0105623e-08 8.4569677e-05)
(-7.885708e-05 1.6323559e-06 7.6409367e-05)
(-0.00014994245 4.2921793e-06 0.00015029638)
(-0.00015648619 -1.9524814e-06 0.00015039619)
(-0.00015591331 1.4265585e-06 0.00014535824)
(-0.00010728146 2.9850833e-06 0.00010497941)
(-0.00013743951 1.9690978e-06 0.00013981102)
(-0.00011871003 2.9336499e-06 0.0001243131)
(-0.00014712847 2.236654e-06 0.00013732147)
(-0.00014187442 3.4579469e-06 0.00014780414)
(-0.00011694677 1.6312434e-06 0.00011346177)
(-0.00012491397 1.2668221e-05 0.00011034095)
(-0.00011470972 -2.2457132e-06 0.00010155705)
(-0.0001428783 4.5912515e-06 0.0001366335)
(-6.3664213e-05 1.2158766e-05 5.0630253e-05)
(-0.00012494825 1.8538938e-06 0.00012157753)
(-0.00015147971 7.771488e-07 0.00016282519)
(-0.00010916731 -7.540443e-06 9.9329491e-05)
(-0.00017404659 -1.1341569e-05 5.3877698e-05)
(-0.0001593261 3.60036e-07 0.00015958305)
(-0.00010830921 -4.926493e-06 0.00010120485)
(1.8337801e-06 -1.0102316e-05 -6.1416581e-06)
(-0.00011807787 4.2288788e-06 0.00012053879)
(-0.00013538703 5.1887514e-06 0.00013731178)
(-0.00015096618 4.2100041e-06 0.00014815659)
(-0.00012777943 1.8877622e-06 0.00012414055)
(-0.00011604371 -3.257715e-06 0.00010309648)
(-7.2129477e-06 -7.9031003e-06 2.7144961e-05)
(2.9569265e-05 1.376343e-05 -2.1021096e-05)
(-0.00011756484 -4.0855678e-06 0.00011103773)
(-3.2832895e-05 -1.1528852e-05 1.8012487e-05)
(-9.8445433e-05 1.3175278e-06 9.9104672e-05)
(-0.00012165548 4.6551813e-06 0.00011586151)
(-0.0001454194 3.6677683e-06 0.00013535879)
(-0.00013815866 2.3246136e-06 0.00013294782)
(-9.2606266e-05 -4.4392617e-06 8.7710702e-05)
(-9.7235133e-05 -3.0676075e-06 9.2247026e-05)
(-0.0001160797 -3.9657262e-06 0.00011069245)
(-0.00013958767 4.2203985e-06 0.00013602893)
(-8.5942122e-05 -2.8510646e-06 6.8671559e-05)
(-0.00013918671 3.3407362e-06 0.00013532775)
(-8.0656204e-05 -3.4821972e-06 8.0311401e-05)
(-7.3032803e-05 -2.7132973e-06 6.9106805e-05)
(-0.00014246845 4.4106344e-06 0.00013608732)
(-0.00014789483 1.7629209e-06 0.00014808575)
(-0.00015004272 5.0153193e-06 0.00015041405)
(-0.00012748698 4.6369616e-06 0.00012718751)
(-0.00011021259 1.8379122e-06 0.00010587213)
(-0.0001128605 3.7513332e-06 0.00012594472)
(-0.00010539587 -3.7610857e-06 0.00010165275)
(-0.00015342678 1.1266489e-06 0.00014886526)
(-0.00015155487 6.2498714e-07 0.00014960137)
(-0.00010670756 4.1093323e-06 0.0001105996)
(-5.1472175e-06 -8.0223642e-06 2.5038815e-05)
(-5.6970193e-05 -2.2759759e-05 2.3697941e-05)
(-0.00010064524 -4.7214398e-06 9.337995e-05)
(-3.4341959e-05 1.1010815e-05 2.1298111e-05)
(-0.00012288702 2.4078899e-06 0.00012835729)
(-0.00013678088 -2.3672943e-08 0.00012393523)
(-3.7283012e-05 9.2852456e-06 2.543733e-05)
(-0.00014923814 8.855257e-07 0.00014879294)
(-0.00013559974 7.0995083e-07 0.00012420112)
(-0.00011513844 1.8570768e-06 0.00011264818)
(-4.3216839e-05 -1.2191772e-05 2.5780011e-05)
(-3.3119968e-05 1.1316066e-05 1.819272e-05)
(-0.00014604912 -1.5340881e-05 0.00012031391)
(-0.00011542215 -2.8506504e-06 0.0001118042)
(-0.00011889197 1.379983e-06 0.00012101797)
(-7.8289341e-05 8.9557257e-07 7.9986634e-05)
(-0.00013013926 2.5206662e-06 0.00012171778)
(-0.000105751 -2.5934483e-06 0.00010730204)
(-2.6864771e-05 7.7989354e-06 1.3084046e-05)
(-0.00012172061 -2.8004534e-06 0.00011343605)
(-5.31173e-05 9.5536021e-06 4.3115801e-05)
(-2.3935982e-05 5.4687579e-06 3.4738239e-05)
(-0.00011543979 -7.1490392e-07 0.00010433203)
(-0.00011735513 -1.0662317e-06 0.00011305707)
(-0.00011425734 -4.7646463e-06 0.00010470803)
(-0.00011967081 1.386657e-06 0.00010552689)
(-0.0001209252 -3.3089745e-06 0.00010518725)
(-0.00011478171 -3.8445281e-06 0.00011333006)
(-0.00017200063 2.6810192e-05 6.4597608e-05)
(-0.00011818916 -6.4339044e-06 0.00010590866)
(-8.927752e-05 -5.7782373e-06 8.7765017e-05)
(-5.8963315e-05 7.9757429e-06 4.6319525e-05)
(-7.5985538e-05 -1.8830845e-06 7.8946621e-05)
(-0.00011432275 -5.7540942e-06 0.00010798775)
(-8.9757323e-05 -7.7721376e-06 9.1898568e-05)
(-6.8330154e-05 8.4468196e-06 5.5540768e-05)
(-0.00011877151 -5.5965184e-06 0.0001137582)
(-0.00010908753 -5.3711607e-06 0.0001033437)
(-0.00018345945 -8.3193638e-06 0.00018968778)
(-9.928095e-05 -6.6028582e-06 9.8639494e-05)
(-0.00024320215 -6.2834137e-06 0.00023595299)
(-9.993801e-05 -7.8311381e-06 9.4573864e-05)
(-0.00012447458 -6.2192581e-06 0.00011470676)
(-8.5755381e-05 -7.1609084e-06 8.5209981e-05)
(-0.00011017719 -2.8324711e-06 0.00010599014)
(-0.00010709314 -3.1700432e-06 0.00010141922)
(-0.00011842571 -4.6372209e-06 0.00011317674)
(-0.00010850122 -3.0210356e-06 0.00010311081)
(-0.00011413866 -1.7505435e-06 0.00010525398)
(-0.00010022109 -7.4515304e-06 0.00010158516)
(-0.0001055811 -5.1553522e-06 0.00010175696)
(-0.00010868811 -3.3155224e-06 0.0001071697)
(-0.00010006672 -3.7500468e-06 9.9287709e-05)
(-0.00011998905 -2.7326636e-06 0.00011421868)
(-9.1471896e-05 -5.4777599e-06 9.4510898e-05)
(-0.0001190201 -2.8519446e-06 0.00010630656)
(-0.0001097273 -2.5515583e-06 0.00010212096)
(-9.3052288e-05 -2.079562e-06 9.2727218e-05)
(-0.00011136811 -3.7207215e-06 0.00010711582)
(-0.00011006111 -2.3193669e-06 0.00010572462)
(-0.00011445309 -1.8172035e-06 0.00011127801)
(-2.2548081e-05 1.0404633e-05 1.1699264e-05)
(-5.037707e-05 2.8469447e-06 4.2798448e-05)
(-0.00011492436 -7.2220515e-07 0.00010634582)
(-0.00011306783 -3.2578276e-06 0.00010976178)
(3.2647286e-05 2.291793e-05 -2.753754e-05)