/*--------------------------------*- C++ -*----------------------------------*\
  =========                 |
  \\      /  F ield         | OpenFOAM: The Open Source CFD Toolbox
   \\    /   O peration     | Website:  https://openfoam.org
    \\  /    A nd           | Version:  11
     \\/     M anipulation  |
\*---------------------------------------------------------------------------*/
FoamFile
{
    format      ascii;
    class       volVectorField;
    location    "10000";
    object      wallShearStress;
}
// * * * * * * * * * * * * * * * * * * * * * * * * * * * * * * * * * * * * * //

dimensions      [0 2 -2 0 0 0 0];

internalField   uniform (0 0 0);

boundaryField
{
    wall-fluid_domain
    {
        type            calculated;
        value           nonuniform List<vector> 
50028
(
(0.00011654887 -1.850094e-05 0.00016011885)
(8.8654778e-05 9.3864537e-06 0.0001108654)
(0.00010707134 -8.4580833e-06 0.00017614172)
(0.00010492072 -9.9268053e-06 0.00017794216)
(0.00013584827 -6.1612329e-06 0.00014155424)
(0.0001355333 -7.6161872e-06 0.0001349726)
(0.00013524894 -4.5138088e-06 0.00013108674)
(0.00013007784 2.0839048e-05 0.00012998813)
(0.00012000235 -1.3196363e-05 0.00015278813)
(0.00013686215 1.7017827e-05 0.00013217123)
(0.00014999474 1.0429044e-05 0.0001410633)
(0.00013071591 1.4079305e-05 0.00012011565)
(0.00013349236 1.4741763e-05 0.0001317113)
(0.00014488425 9.0567818e-06 0.0001382375)
(0.00014237928 4.7801328e-06 0.00013033551)
(0.00014642666 6.6669749e-06 0.00013298897)
(9.147007e-05 1.7675321e-05 0.00010310953)
(9.3661813e-05 1.7177604e-05 8.9532895e-05)
(0.00011971168 1.078052e-05 0.00011679931)
(0.00013732121 -1.0416018e-05 0.00022305869)
(0.00013602585 7.2034292e-06 0.00012338939)
(0.00014507675 1.7650465e-05 0.00015542427)
(9.575122e-05 1.2478101e-05 8.2252018e-05)
(0.00013011503 1.7597418e-05 0.00010682519)
(0.00013380462 -2.8910277e-06 0.00011729903)
(0.00013963201 1.1843307e-05 0.0001327122)
(0.00011954707 1.0873919e-05 0.00010602096)
(0.00012736093 2.4574054e-06 0.00011317263)
(0.00013263689 6.5532954e-06 0.00012458297)
(0.00011539474 4.2443933e-06 0.00010018817)
(0.00012743529 1.7248003e-06 0.0001113596)
(0.00012391894 7.1781966e-06 0.00011080359)
(0.00012869548 1.0958739e-05 0.00012188305)
(0.00012809969 -2.7304148e-06 0.00010984522)
(0.00013994846 2.0737356e-06 0.0001222804)
(0.00014374085 3.9667769e-06 0.00012190913)
(9.1149818e-05 -1.1898493e-05 8.2193909e-05)
(0.00012775862 -1.9510913e-06 0.00011021607)
(0.00011236448 2.4031207e-06 9.5853486e-05)
(1.2838637e-05 8.9655524e-07 1.4899499e-05)
(0.00012511883 1.4565704e-05 0.00013130098)
(2.1837577e-05 -6.1440467e-06 2.3521518e-05)
(1.3144606e-05 -6.1697192e-06 1.3595239e-05)
(2.2880775e-05 -7.493266e-06 2.2444945e-05)
(0.00015526672 -2.8137356e-05 0.00015231453)
(1.4340421e-05 -9.166129e-07 8.8205323e-06)
(2.8587476e-05 -5.6910386e-06 3.216046e-05)
(2.3227292e-05 -4.8679429e-06 2.0193998e-05)
(0.00015414099 -2.4139813e-05 0.00016084161)
(1.5067741e-05 -6.2154134e-06 1.3756989e-05)
(4.9267428e-06 -1.0745006e-06 9.9788353e-07)
(1.175388e-05 -4.7755969e-06 1.1305762e-05)
(2.3097543e-06 -2.0097162e-06 -9.3652349e-07)
(2.4520339e-05 -9.6842086e-06 2.2357813e-05)
(4.8494647e-06 -2.0752488e-06 3.3086853e-06)
(3.5269636e-05 -9.558354e-06 3.644361e-05)
(3.8215598e-06 -2.2339448e-06 1.5052287e-06)
(3.9390449e-05 -7.9371752e-06 3.9759134e-05)
(0.00013117555 -3.0912006e-05 0.00013991441)
(3.8525864e-05 -1.3404117e-05 3.5394654e-05)
(1.4239921e-05 -7.7192427e-06 1.2515508e-05)
(0.00012112411 5.320248e-06 0.00012049501)
(2.4063454e-05 -7.8725184e-06 1.9801888e-05)
(0.00014266729 -3.4691383e-05 0.0001679918)
(0.00015122173 -3.4286555e-05 0.00016924735)
(2.8217741e-06 -1.3651356e-06 1.042676e-06)
(0.00013123194 -1.1270006e-05 0.00021976838)
(2.5321132e-05 -9.8067081e-06 2.1823097e-05)
(4.0167424e-05 -7.8991766e-06 3.2323417e-05)
(0.00011719819 -8.8867385e-07 0.00011811476)
(0.00013047154 -1.5405445e-05 0.00013283669)
(4.2397823e-05 -1.5589619e-05 3.3521615e-05)
(0.00015122566 -7.8846095e-06 0.00024511552)
(0.00012532579 -1.2711933e-05 0.00012635711)
(2.5992373e-05 -4.5889822e-06 1.7863453e-05)
(7.6469612e-06 -4.8684715e-06 8.0981397e-06)
(3.9014873e-06 -3.1453293e-06 3.8382231e-06)
(0.00011675927 -1.9881422e-05 0.00012559836)
(2.6509473e-05 -1.0699009e-05 2.3142945e-05)
(4.6875712e-05 -1.1077406e-05 3.3448044e-05)
(3.2797191e-05 -1.1668342e-05 2.8450635e-05)
(0.00011507538 5.7443535e-06 0.00011589052)
(2.4561187e-05 -1.4041731e-05 2.3396378e-05)
(1.200422e-05 -5.5478341e-06 1.1030452e-05)
(0.00015021405 1.6896656e-05 0.00018844887)
(2.5242606e-05 -1.1046967e-05 2.1363275e-05)
(3.5880234e-05 -1.3270503e-05 3.0131848e-05)
(3.6966513e-05 -8.7381007e-06 2.6415923e-05)
(0.00014093117 -8.3542242e-06 0.00023918436)
(1.5294633e-05 -9.3349741e-06 1.2668206e-05)
(0.00014406367 -2.982236e-05 0.00015135498)
(2.249511e-05 -8.6072425e-06 1.5744547e-05)
(-3.8093586e-07 -1.289979e-06 -2.694799e-06)
(8.6474984e-06 -3.206176e-06 7.9811957e-06)
(1.0078815e-06 1.9091296e-07 -1.6631669e-06)
(1.4491599e-05 -5.2920144e-06 9.2810061e-06)
(5.5413891e-05 -1.2536191e-05 4.442891e-05)
(0.00014389782 1.8492642e-05 0.00018264052)
(1.026192e-05 -6.8885791e-06 9.2921643e-06)
(4.4072335e-05 -1.4820735e-05 3.2939967e-05)
(5.1164447e-05 -1.3261552e-05 3.8987254e-05)
(-3.352246e-07 -8.0415582e-07 -4.1734765e-06)
(0.00013286926 2.5397635e-05 0.00017899549)
(1.8233158e-06 -1.7415732e-06 -5.8211565e-08)
(0.00015108874 1.7055191e-05 0.00015869607)
(-3.3815931e-06 -2.4751329e-07 -5.667029e-06)
(5.2427185e-05 -1.5834407e-05 4.0232002e-05)
(5.298873e-05 -1.7664315e-05 4.3898154e-05)
(5.4032114e-05 -1.6254596e-05 4.1717402e-05)
(0.0001260337 4.6054042e-06 0.00013085545)
(1.5878336e-05 -8.7262792e-06 1.0220628e-05)
(6.641889e-06 -4.4364903e-06 5.4229444e-06)
(4.574665e-06 -1.4359884e-06 2.7076049e-06)
(1.5192951e-06 -4.7627059e-07 -1.6861828e-06)
(-5.8772284e-08 -1.2973262e-06 -2.6432392e-06)
(3.0418893e-06 -1.1007124e-06 9.7746687e-07)
(-8.5039877e-07 1.1982455e-07 -3.2146638e-06)
(-1.2929847e-06 -6.8473879e-07 -4.5470272e-06)
(2.939799e-06 -1.8216004e-06 9.3811899e-08)
(1.6509451e-06 -3.2458537e-07 -2.3175062e-06)
(1.7813017e-06 -1.9174127e-06 -3.9686476e-06)
(-3.5639006e-06 3.2505664e-07 -6.7928038e-06)
(-2.2043109e-07 -1.5824939e-06 -3.9380898e-06)
(4.2943472e-07 -3.9303869e-07 -3.9068332e-06)
(-1.9812519e-07 -1.3528334e-06 -4.2637205e-06)
(-1.3139358e-06 -3.4859246e-07 -5.3405096e-06)
(-2.2598258e-06 -9.5475995e-07 -5.8291318e-06)
(-8.686873e-07 1.3211379e-07 -6.216024e-06)
(-1.950385e-06 8.7261068e-08 -5.5936822e-06)
(0.00011563721 2.7571157e-05 0.00014560919)
(-4.5677123e-06 -1.5090878e-07 -6.7775072e-06)
(0.0001198056 -2.693517e-05 0.00014564265)
(0.00011120356 -2.7459087e-05 0.00014226641)
(-1.8415346e-06 -4.9338454e-07 -6.044538e-06)
(-2.9062293e-06 7.1117518e-07 -7.4467028e-06)
(0.00011364181 -1.8661971e-05 0.00011201931)
(4.8659657e-07 -7.6262453e-07 -4.8855472e-06)
(-2.7411985e-06 -7.6621275e-07 -6.0847557e-06)
(-3.3239476e-06 6.9511666e-07 -7.8720036e-06)
(-1.4837497e-06 -8.5021888e-07 -5.3575556e-06)
(-1.448487e-08 -1.8715668e-06 -4.1384168e-06)
(0.00011087364 -1.3968394e-05 0.00010198511)
(-2.4046444e-06 -8.5700378e-07 -5.168213e-06)
(0.00012147279 -3.6937682e-05 0.00014569351)
(7.9847527e-06 -7.6962784e-06 6.5981752e-06)
(-2.3217688e-06 8.6502391e-07 -7.5718679e-06)
(-1.5380164e-06 -3.8053494e-08 -5.7922248e-06)
(6.1356818e-06 -2.6867525e-06 3.2424117e-06)
(0.00013414842 8.1078358e-06 0.00013976403)
(-9.5016371e-07 -1.1406818e-06 -4.791166e-06)
(2.9935511e-06 -2.7432217e-06 -1.7338227e-07)
(1.4322091e-06 -2.7926502e-06 -1.4661485e-06)
(-1.3996514e-06 -2.5129445e-06 -4.2250299e-06)
(-1.1538102e-06 -2.1114306e-07 -4.0497476e-06)
(-2.5831203e-06 6.8155598e-07 -4.8591631e-06)
(-3.0110866e-06 9.388446e-08 -4.6804018e-06)
(-1.9197824e-06 -5.8474481e-07 -3.5877186e-06)
(0.00010754278 -2.5114106e-05 0.00012806298)
(-1.3052267e-06 -1.4045008e-06 -4.1179058e-06)
(-8.5914873e-08 -2.5845255e-06 -2.3394078e-06)
(-2.110862e-06 -1.2135303e-06 -2.9250241e-06)
(-2.0299765e-06 -2.2473629e-06 -3.6777588e-06)
(0.00010941203 -1.2199751e-05 0.00017471658)
(1.1443546e-06 -2.3500383e-06 -1.9715541e-06)
(-8.2453332e-07 -6.9521744e-07 -2.7973325e-06)
(1.974599e-06 -2.0881072e-06 -1.0568073e-06)
(8.9969317e-05 -1.2075166e-05 0.00015010895)
(-1.0391382e-06 -1.4068739e-06 -2.6964185e-06)
(3.4104525e-06 -3.0222189e-06 1.0646415e-06)
(-1.1676852e-06 1.6550606e-07 -2.7571763e-06)
(-1.3411591e-06 -1.3946322e-06 -2.4899321e-06)
(7.7814357e-06 -4.4264122e-06 4.397231e-06)
(2.3218091e-07 -1.7025775e-06 -2.6703793e-06)
(-4.2570913e-07 -8.7732095e-07 -2.4764495e-06)
(-1.6636577e-06 -1.278349e-06 -1.554084e-06)
(-3.138546e-07 -1.2086957e-06 -1.9618327e-06)
(0.00014344107 1.9925533e-05 0.00020887457)
(0.00012014983 -1.0853837e-05 0.00020926189)
(0.00010650955 -6.6034203e-06 0.00016507977)
(-4.1798771e-07 -1.6375271e-06 -1.6540929e-06)
(-3.1201142e-07 -1.7894021e-06 -1.2812763e-06)
(8.5278265e-06 -6.9871774e-06 6.0130989e-06)
(6.4922193e-07 -2.1086867e-06 -6.6945838e-07)
(-2.0803923e-06 -2.3602564e-07 -3.2179966e-06)
(7.4978663e-07 -1.6552814e-06 -1.1715992e-06)
(-1.4699369e-06 -6.138688e-07 -1.8398517e-06)
(-6.4955527e-07 -1.1249227e-06 -1.6459711e-06)
(3.4480318e-06 -3.1283516e-06 1.0611081e-06)
(0.00012073944 -1.2845018e-05 0.00018876471)
(-1.9689141e-06 4.2111583e-07 -3.137428e-06)
(2.0160934e-06 -2.4237322e-06 2.6009933e-07)
(3.9168574e-06 -3.3593591e-06 1.8525824e-06)
(-2.2391232e-06 1.2406368e-08 -2.0971019e-06)
(-1.0255478e-07 -1.386078e-06 -9.2919559e-07)
(-1.7329162e-06 -5.8959738e-08 -2.409315e-06)
(-9.6102622e-07 -6.6931105e-07 -1.779985e-06)
(0.00011237461 -1.1826684e-05 0.00010718676)
(1.5556328e-06 -3.294109e-06 1.2839529e-06)
(-3.1870312e-07 -1.8155884e-06 -8.1874931e-08)
(2.182234e-05 -6.7247234e-06 1.147965e-05)
(-2.5138467e-07 -1.4648523e-06 -1.0582127e-06)
(9.21055e-07 -2.3384466e-06 -3.7154002e-07)
(2.1685056e-06 -5.0228914e-06 1.2232742e-06)
(-1.9853282e-06 -1.0307077e-06 -1.8841211e-06)
(-1.6379836e-06 -7.4609546e-07 -2.2410781e-06)
(0.00013186877 -1.6683749e-05 0.00020447798)
(6.9924663e-06 -6.4553147e-06 3.9054662e-06)
(0.00013626383 -2.5570508e-05 0.00013511658)
(-1.8688043e-06 -8.4892232e-07 -2.8289089e-06)
(-1.103225e-06 -1.865594e-06 -1.5937187e-06)
(-8.8571179e-07 -1.3349095e-06 -2.6545881e-06)
(5.4574199e-05 -1.6218249e-05 3.9381111e-05)
(7.3622625e-05 -1.3582961e-05 4.8720757e-05)
(1.9643809e-06 -3.8359528e-06 -3.2166625e-07)
(-3.3211169e-06 -6.6343705e-07 -4.2463996e-06)
(-2.9744175e-06 -1.3046327e-06 -3.7746826e-06)
(4.7216268e-05 -9.1358362e-06 3.9532672e-05)
(7.5293082e-05 -1.8595448e-05 5.5341062e-05)
(7.7687311e-07 -2.6092155e-06 -1.6112289e-06)
(-1.6937716e-06 -6.2541075e-07 -5.1809251e-06)
(-1.5276764e-06 -1.4720626e-06 -4.1940767e-06)
(-2.470224e-06 -2.4040507e-06 -3.2540576e-06)
(-4.566721e-06 -1.805965e-06 -6.035333e-06)
(1.5928148e-05 -1.0322113e-05 1.0899707e-05)
(5.0975071e-05 -1.043551e-05 4.0418941e-05)
(-2.858011e-06 -2.0935093e-06 -6.1538426e-06)
(-5.4696983e-07 -2.7023878e-06 -3.1757064e-06)
(-3.9134786e-06 -3.0816907e-06 -5.2418816e-06)
(3.0785494e-05 -1.3179507e-05 2.2305878e-05)
(-3.3944755e-06 -1.245752e-06 -6.4095916e-06)
(4.1694651e-05 -1.5259988e-05 3.1651357e-05)
(-6.3507932e-06 -2.6826005e-06 -8.5694997e-06)
(-2.9179135e-06 -3.3226863e-06 -5.0756618e-06)
(-4.3251195e-06 -1.531875e-06 -7.1771668e-06)
(0.00011487619 1.9160498e-05 0.00011552198)
(-3.5106178e-06 -2.8550332e-06 -7.4985581e-06)
(-5.1644509e-06 -2.5330722e-06 -8.824036e-06)
(0.0001434853 3.892582e-06 0.00013267963)
(-4.9794513e-06 -2.1759002e-06 -1.0107465e-05)
(7.7778305e-06 -6.9399022e-06 4.3244878e-06)
(2.3253246e-06 -4.5454275e-06 -2.4385092e-07)
(-6.6946208e-06 -2.1446855e-06 -1.0338211e-05)
(-4.8468628e-06 -8.9545827e-07 -8.400087e-06)
(5.2974298e-05 -1.2138614e-05 4.4545233e-05)
(-1.8282464e-06 -7.9176693e-07 -2.4222256e-06)
(8.2700863e-08 -2.9200868e-06 -4.6985313e-06)
(-7.2592863e-07 -3.7729574e-06 -2.554171e-06)
(-6.8001325e-06 -2.5089761e-06 -1.1374031e-05)
(0.00011937224 -1.0135642e-05 0.00020693003)
(-1.7126386e-06 9.5846845e-07 -4.5839819e-06)
(-2.6078855e-06 6.7177557e-07 -4.0569191e-06)
(4.4898656e-05 -3.3003245e-06 3.9479266e-05)
(0.0001383466 1.7961308e-06 0.00012189282)
(-5.9165376e-06 -1.4960552e-06 -1.0528034e-05)
(0.0001250812 -5.6454498e-07 0.00010873851)
(-1.0150605e-05 -2.2919135e-06 -1.4276056e-05)
(-2.7793331e-06 -1.8924959e-07 -3.2349399e-06)
(-3.2810135e-06 -2.4984817e-07 -2.5627637e-06)
(-9.0306443e-06 -1.8882035e-06 -1.1826573e-05)
(3.9393105e-06 -5.9098715e-06 2.6906891e-06)
(-8.681501e-06 -2.1689995e-06 -1.4001477e-05)
(6.6322368e-07 -4.2189792e-06 -3.2007599e-06)
(1.0707227e-06 -3.2091333e-06 -2.0093011e-06)
(0.00013014482 1.0698417e-05 0.0001335565)
(-2.95807e-06 -8.7366125e-07 -5.2645457e-06)
(9.8122571e-05 1.0804041e-05 0.00010192516)
(5.2652541e-05 4.1299107e-06 5.7455311e-05)
(0.0001194422 -2.6852706e-06 0.00010062123)
(4.7291237e-06 -4.2086864e-06 3.2263962e-07)
(1.1736301e-05 -7.5308808e-06 7.2101608e-06)
(-2.1060602e-06 4.7473857e-07 -4.1316128e-06)
(1.4549367e-06 -4.762913e-06 -6.0211973e-07)
(-2.4043235e-06 -3.2639859e-06 -6.1612858e-06)
(4.3804038e-06 -6.1505308e-06 1.1169907e-06)
(-4.8970293e-06 -5.7334275e-07 -8.224326e-06)
(4.4894809e-06 -7.0231314e-06 2.4641413e-06)
(0.0001405312 3.3254231e-06 0.00011167972)
(6.5938501e-06 -6.9162342e-06 5.0824612e-06)
(-2.9348235e-06 -4.4073784e-06 -4.8393107e-06)
(-9.6865705e-06 -2.6368925e-06 -1.7545338e-05)
(6.2416932e-05 -1.4447904e-05 4.6113159e-05)
(-3.2852558e-06 4.7700556e-07 -4.5218279e-06)
(7.636686e-05 -1.4335941e-05 5.0858333e-05)
(7.6622131e-05 -1.8589499e-05 5.4901599e-05)
(8.2590273e-07 -7.6036955e-06 -5.6113671e-07)
(6.6185218e-06 -1.0367268e-05 5.1292085e-06)
(-8.6975221e-06 -2.4622609e-06 -1.622435e-05)
(-6.7954989e-06 -6.8850036e-07 -1.0358327e-05)
(8.2405805e-06 -7.1718278e-06 4.3947809e-06)
(1.0431084e-05 -7.0373773e-06 5.8991413e-06)
(1.5969064e-05 -1.4282651e-05 1.0936152e-05)
(7.2190137e-06 -7.2924963e-06 2.372525e-06)
(-4.7162009e-06 -7.8904116e-07 -4.5407138e-06)
(6.2476785e-05 7.3176474e-06 5.7453802e-05)
(-2.1106961e-06 6.7210352e-07 -3.6550641e-06)
(-2.7086791e-06 -5.1066141e-08 -3.1025966e-06)
(7.2081881e-06 -1.1104343e-05 3.467735e-06)
(1.2393534e-05 -9.5066036e-06 9.2013946e-06)
(-3.5990859e-06 1.819618e-07 -4.5519241e-06)
(7.5354304e-05 -1.7049885e-05 5.8193124e-05)
(2.76095e-05 -1.2349287e-05 2.2608256e-05)
(-3.2583577e-06 -1.3537738e-07 -4.266805e-06)
(2.1122525e-05 -1.2147921e-05 1.4893369e-05)
(0.00015287534 -2.5457458e-05 0.00014636986)
(5.4689342e-05 -1.6374812e-05 4.0576982e-05)
(0.00010556124 8.3463481e-06 0.00011133869)
(6.2895254e-05 -9.9404334e-06 5.3864701e-05)
(-7.1993826e-06 -9.7822049e-07 -8.8260266e-06)
(2.1024383e-05 -1.3830167e-05 1.422403e-05)
(1.6462038e-05 -7.3906899e-06 8.9175413e-06)
(2.5739458e-05 -1.028049e-05 1.3900595e-05)
(4.5997383e-05 -1.663824e-05 3.4344966e-05)
(-5.2593975e-06 -7.1156284e-08 -5.6080603e-06)
(-4.399656e-06 -4.5175635e-07 -6.2953813e-06)
(-2.5262272e-06 6.7305275e-07 -5.4530795e-06)
(0.00012804528 8.4303742e-06 0.0001313801)
(-3.2875527e-06 2.4913137e-07 -6.1449627e-06)
(-3.3090554e-06 2.8843543e-07 -4.9685315e-06)
(-4.5713561e-06 2.9797041e-07 -6.7585121e-06)
(-4.5818618e-06 3.9484097e-07 -6.4513979e-06)
(0.00011874979 -1.0234878e-05 0.00019079114)
(0.00011725882 6.136865e-06 0.00011807078)
(-4.7179587e-06 -3.541284e-08 -7.550344e-06)
(0.00010330084 -9.4721773e-06 0.00016192443)
(0.00010602273 -9.174209e-06 0.0001631048)
(0.00011787664 -9.3529868e-06 0.00015670831)
(1.6498048e-05 -9.6568697e-06 1.2092066e-05)
(1.7949979e-05 -1.1867349e-05 1.4293714e-05)
(5.7965359e-05 -7.9116352e-06 4.4791972e-05)
(-4.7915228e-06 -1.0029681e-06 -8.7661997e-06)
(8.4684926e-05 -6.454765e-06 5.5868479e-05)
(0.00011388645 6.3086652e-06 0.00011465735)
(8.6652335e-05 -1.2522896e-05 5.999575e-05)
(7.3768524e-05 -1.7947123e-05 5.0928295e-05)
(8.3102282e-05 -1.3530125e-05 6.0534358e-05)
(8.3782198e-05 -1.2490616e-05 5.8821188e-05)
(8.5041872e-05 -1.4922116e-05 5.871887e-05)
(0.00011454428 3.2222657e-06 0.00011564221)
(2.2655604e-05 -1.5564728e-05 2.0086831e-05)
(9.4957422e-05 -5.4233776e-06 6.5223616e-05)
(8.8108185e-05 -1.713211e-05 6.486096e-05)
(9.1884705e-05 -1.7422424e-05 6.2322595e-05)
(4.8769177e-05 -7.0007518e-06 4.0933399e-05)
(8.4735678e-05 -1.3108974e-05 6.290645e-05)
(8.2747588e-05 -6.6757893e-06 6.0091316e-05)
(-4.6814194e-06 -2.1596236e-07 -8.3017933e-06)
(9.5100041e-05 -1.2668091e-05 6.8370961e-05)
(8.5893806e-05 -3.3730437e-06 6.0921389e-05)
(9.314488e-05 -8.0901236e-06 6.4295951e-05)
(0.00010640586 -1.7343138e-05 7.5953623e-05)
(8.4812012e-05 -6.6689873e-06 6.1097864e-05)
(0.00010323253 3.9500045e-07 7.2140555e-05)
(0.00012699229 1.8024706e-06 0.00013075595)
(9.8959421e-05 -3.8753394e-06 7.3931968e-05)
(0.000109315 -5.3563985e-07 7.6945505e-05)
(8.7240911e-05 -4.0336368e-06 6.3142571e-05)
(9.9227857e-05 -3.9017717e-06 7.4033082e-05)
(0.00014374593 1.8861939e-05 0.00014057148)
(8.791161e-05 -1.0056231e-05 6.5896534e-05)
(6.6716545e-05 -1.6844925e-05 4.8757436e-05)
(2.9581866e-05 -1.7780491e-05 2.5077938e-05)
(0.00010561204 -7.9552187e-06 7.6302446e-05)
(0.00013753391 8.212411e-06 0.00012739246)
(9.3091312e-05 -1.6909919e-06 6.6021675e-05)
(3.488731e-05 -1.5223148e-05 2.4730412e-05)
(0.00011447152 3.1196228e-06 0.00011696767)
(2.8035778e-05 -1.6216389e-05 2.1038688e-05)
(2.7884351e-05 -1.3045657e-05 2.1011882e-05)
(0.0001319709 7.897591e-06 0.00011778368)
(5.7643844e-05 -1.7241396e-05 4.1832945e-05)
(0.0001204197 2.4452719e-06 0.0001238633)
(0.00012748757 -3.2985285e-05 0.00014581086)
(9.6608126e-05 -2.6224571e-05 7.0319682e-05)
(0.00010170545 3.9861922e-06 8.8018142e-05)
(0.00010068449 -2.1052205e-06 8.7407898e-05)
(3.9924564e-05 -1.7495446e-05 3.0783824e-05)
(8.2580022e-05 -2.2199596e-05 6.1528878e-05)
(4.1873889e-05 -1.6553879e-05 3.0500616e-05)
(0.00010827551 -1.1990804e-05 0.00015833542)
(0.00010932196 -1.4517557e-05 0.00016185571)
(0.00010256959 -1.3350962e-05 7.4213932e-05)
(5.1308773e-05 -1.6616036e-05 3.8256281e-05)
(4.2320864e-05 -1.7334191e-05 3.1872036e-05)
(0.0001282766 -2.4900116e-06 0.00010556469)
(3.7538816e-05 -2.0561091e-05 3.0507273e-05)
(9.3042167e-05 -1.6969111e-05 6.6682237e-05)
(6.0834359e-05 -1.922204e-05 4.5454087e-05)
(0.00013143542 -3.1863084e-05 0.0001348279)
(3.160484e-05 -1.9495966e-05 2.4753353e-05)
(5.1755714e-05 -1.8336387e-05 3.8699805e-05)
(5.32924e-05 -1.5706937e-05 3.9194376e-05)
(7.4033128e-05 -2.1629249e-05 5.7452382e-05)
(8.9920618e-05 -1.0978272e-05 6.3519923e-05)
(0.00010785831 -2.1994775e-06 8.8471491e-05)
(6.4308267e-05 -9.8714934e-06 4.9677396e-05)
(6.0343113e-05 -1.9298799e-05 4.5318691e-05)
(7.2675722e-05 -3.670622e-06 5.3325442e-05)
(7.1520655e-05 -2.2922808e-05 5.4157538e-05)
(8.500811e-05 -2.0122496e-05 6.0415918e-05)
(8.4333698e-05 -1.7277392e-05 6.0044273e-05)
(6.1426024e-05 -1.7116956e-05 4.5041707e-05)
(9.7466996e-05 -1.6150444e-05 7.0896397e-05)
(0.00010199095 2.5093093e-07 7.4916087e-05)
(7.963213e-05 -1.6682332e-05 5.4496023e-05)
(9.7831018e-05 -5.4010286e-08 7.2885936e-05)
(9.3125033e-05 -7.1626621e-06 6.8240773e-05)
(9.1857502e-05 -1.9546168e-05 6.6514774e-05)
(0.00011358001 -1.3597401e-05 0.00015378746)
(0.00010184089 -1.9656467e-05 7.5344924e-05)
(0.00012156595 6.1715221e-06 0.00012800494)
(9.852585e-05 -1.2010414e-05 7.282255e-05)
(0.0001584179 -2.0775657e-05 0.00014816719)
(8.8029804e-05 -1.3503216e-05 6.0408484e-05)
(8.586416e-05 -2.2668099e-05 6.1783479e-05)
(9.8060588e-05 -2.1847427e-05 0.00010945367)
(5.9437837e-05 -1.7285402e-05 4.4850741e-05)
(0.00014040832 -2.1924168e-05 0.00014352806)
(9.6976286e-05 -6.9954825e-06 7.1263159e-05)
(0.00010813095 -1.0081951e-05 7.750273e-05)
(0.00010425958 -9.1898133e-06 7.6899024e-05)
(8.4292765e-05 -1.8871476e-05 5.6971776e-05)
(6.8656982e-05 -8.463633e-06 5.6126306e-05)
(6.2458184e-05 -2.1037827e-05 4.9353161e-05)
(7.1311304e-05 -7.6414587e-06 5.5950414e-05)
(8.7006508e-05 -7.5784208e-06 6.8376766e-05)
(0.00010036755 -3.5768438e-06 7.5591446e-05)
(0.00010307998 8.4328503e-07 7.6142737e-05)
(0.00013692631 -1.7343898e-05 0.00013760935)
(7.1125829e-05 6.0206028e-06 6.7344114e-05)
(0.00010618524 -1.2532391e-05 0.00010338754)
(8.912366e-05 3.6763098e-06 0.00010267055)
(5.8287673e-05 -1.041786e-05 5.2455991e-05)
(8.6579086e-05 9.6975035e-06 9.1050549e-05)
(6.0595474e-05 -4.261415e-06 5.5826071e-05)
(8.2529288e-05 -1.0807559e-05 6.9998237e-05)
(8.6475772e-05 -1.3137323e-05 7.4581849e-05)
(9.1424117e-05 -6.4530247e-06 7.0273928e-05)
(6.2090952e-05 -1.2814678e-06 5.3165844e-05)
(8.2857921e-05 -3.1564575e-06 6.8724121e-05)
(0.00012581882 -9.2222887e-06 0.00019179756)
(0.0001227574 -9.4751842e-06 0.00018901111)
(0.00012084838 -1.2636279e-05 0.00019224785)
(8.9322673e-05 -1.0479409e-05 6.7202578e-05)
(0.00014334725 1.180309e-05 0.00014189557)
(0.00013278287 4.0166208e-06 0.00012267392)
(-3.5521741e-06 -2.1969505e-06 -6.2354846e-06)
(9.8400133e-05 -1.4858465e-06 8.0848641e-05)
(0.00012789994 9.9917229e-06 0.0001209894)
(9.0905237e-05 -1.5503357e-05 6.1014355e-05)
(0.00015686549 -2.5357282e-05 0.00014947093)
(0.00012673756 8.5078065e-06 0.00012136521)
(0.00013893157 -2.2268959e-06 0.00013270749)
(0.00013894827 1.5381611e-05 0.00014113873)
(9.0241749e-05 -1.7011883e-05 6.2788973e-05)
(0.00012771385 8.8181451e-06 0.00012450815)
(0.00013928766 1.751175e-05 0.00013935371)
(0.00013331309 4.9457741e-06 0.000113291)
(9.3836438e-05 2.3177449e-06 8.5177484e-05)
(8.3885489e-05 7.5155949e-06 8.3038817e-05)
(0.00010714072 -9.5129785e-06 0.0001801168)
(0.00010815608 -6.2269614e-06 9.4715049e-05)
(0.00010763911 -6.0470377e-06 9.7282893e-05)
(9.9494241e-05 -4.8706842e-06 8.065038e-05)
(0.00011156759 -5.0914603e-06 9.7732303e-05)
(0.00011654856 -7.4353301e-06 8.9501951e-05)
(0.0001118295 -1.0625818e-05 9.5312484e-05)
(0.00010952441 -4.4046746e-06 9.5518341e-05)
(0.0001007203 -1.2936967e-05 7.9641152e-05)
(0.00012325966 -1.1265948e-05 9.7343971e-05)
(9.07002e-05 -6.3489563e-06 6.1267875e-05)
(9.049835e-05 -8.533577e-06 0.00014932033)
(9.4235336e-05 -6.6106039e-06 8.3779236e-05)
(9.8947579e-05 -1.4349854e-05 8.2576495e-05)
(9.1570251e-05 -1.207537e-05 7.4268874e-05)
(0.00010623766 -1.4630929e-05 9.3942321e-05)
(9.3727135e-05 -1.0052967e-05 7.6696499e-05)
(0.00010272312 -1.4705128e-05 7.9497454e-05)
(0.0001284961 -1.5689512e-05 0.00019562823)
(5.8822426e-05 -1.2447873e-05 4.540766e-05)
(-3.6532751e-06 -7.5797731e-07 -3.9965403e-06)
(0.0001378313 7.9867034e-06 0.0001300305)
(0.00010058633 -6.9576447e-06 7.8306813e-05)
(0.0001226209 -1.3140516e-05 9.7765355e-05)
(0.00012505156 1.757946e-05 0.00011993471)
(0.00013205909 -1.5337579e-06 0.00012447864)
(0.00012373263 -4.1339931e-06 0.00011074825)
(0.00010252631 -1.5854117e-05 8.1052983e-05)
(-4.5697659e-06 3.9116989e-09 -7.9817372e-06)
(-5.3584948e-06 8.7454846e-07 -6.3878259e-06)
(0.00010618939 -5.0525899e-06 8.3594755e-05)
(9.5646269e-05 1.1958364e-05 0.00010493213)
(0.0001094052 -5.8502349e-06 9.7246316e-05)
(9.0654905e-05 -2.2044175e-05 7.2971643e-05)
(0.00010118476 -8.2013763e-06 7.874352e-05)
(0.00012685196 -1.0473255e-05 9.7869187e-05)
(0.00010174864 -1.0483707e-05 8.8405171e-05)
(9.8541605e-05 -1.1550122e-05 7.2479776e-05)
(8.5078225e-05 -1.400919e-05 6.2946923e-05)
(9.7474777e-05 -6.9437551e-06 7.14592e-05)
(0.00012861511 -1.0215466e-06 0.00011989174)
(0.00013435605 8.3755222e-06 0.00012906363)
(-6.4836397e-06 -2.8392552e-07 -7.8114435e-06)
(8.0369726e-05 -1.8242349e-05 5.9529379e-05)
(0.00010118046 1.0613447e-05 9.8184133e-05)
(9.4982594e-05 -1.3086514e-05 6.704925e-05)
(8.0128683e-05 -1.7699316e-05 5.9077221e-05)
(-7.1739002e-06 -1.1173849e-06 -9.1711314e-06)
(8.0617151e-05 -2.3495987e-05 6.4249192e-05)
(0.00010698341 -6.0862115e-06 9.8048981e-05)
(0.00010074637 2.9652737e-06 7.9800485e-05)
(0.00010008303 -2.0925523e-06 8.9897707e-05)
(9.2925744e-05 4.6174372e-06 7.9399222e-05)
(0.00010224289 -1.0106631e-05 8.9026013e-05)
(0.00010589569 3.7869632e-06 0.00010210596)
(0.00012598715 -3.6061007e-06 0.00011872566)
(0.00011412904 -8.3070569e-06 0.00010801591)
(0.00012486625 4.7025493e-06 0.00012222843)
(0.00010504915 -1.003917e-05 9.6796365e-05)
(0.00011968211 -4.6017405e-07 0.00012090999)
(0.00012025859 -1.8317757e-06 0.00011355635)
(0.00013243551 -2.6587792e-06 0.00013064329)
(0.0001004921 -7.2786851e-06 7.5595159e-05)
(0.00010931821 -3.4020507e-06 0.00010459996)
(0.00010963851 -5.3650092e-06 0.00010428777)
(0.00012825352 -1.8443269e-06 0.00012682946)
(0.00012976435 -9.6918875e-06 0.00012512635)
(0.00012143652 3.9754955e-06 0.00011932867)
(0.00012453906 -4.5221026e-06 0.00012022457)
(0.00010594228 -8.1661159e-06 9.8250522e-05)
(9.9258313e-05 1.8251663e-05 9.8196988e-05)
(0.00010293113 -3.5915157e-06 9.5376477e-05)
(5.6544249e-05 -3.8262991e-06 5.0298776e-05)
(0.00011438696 -1.2439393e-05 0.00015495593)
(6.4639745e-05 -1.202666e-07 6.249004e-05)
(0.00010415624 4.7609696e-07 0.00010259069)
(8.5596077e-05 -1.012023e-06 7.8267309e-05)
(0.00013727965 -1.9922305e-05 0.00012881829)
(8.7923507e-05 -1.218748e-05 6.6897677e-05)
(8.6264408e-05 -1.3937529e-05 6.801852e-05)
(0.00010209101 1.0192181e-06 9.841976e-05)
(0.00012176302 -7.0184412e-06 0.00012227982)
(9.9670819e-05 -4.3178994e-06 9.232501e-05)
(0.00012192796 -3.3131177e-06 0.00011718693)
(3.3425754e-05 7.1193438e-06 3.9846053e-05)
(0.00011724556 -3.1633152e-06 0.00011770896)
(3.2636718e-05 5.3977344e-06 3.6605362e-05)
(0.00013140496 -1.6140864e-05 0.00010291984)
(9.9106703e-05 -1.255759e-05 8.8685929e-05)
(0.00012169444 -2.1740853e-05 0.00011669473)
(0.00012569362 -1.3131537e-05 0.00011884627)
(0.00011248723 -8.1671327e-06 0.00010123984)
(9.7319504e-05 2.2391265e-06 9.3443909e-05)
(9.8907655e-05 -1.3491315e-05 7.6274984e-05)
(3.8009004e-05 7.7671805e-07 4.1035124e-05)
(0.00011949499 -1.0829851e-05 0.0001146818)
(0.00011071788 -9.2468945e-06 0.00010299615)
(0.00010357528 -9.6692635e-06 9.440687e-05)
(0.0001063785 -1.3809356e-05 9.4102058e-05)
(0.00011100252 -4.5184673e-06 0.00010192363)
(9.2897621e-05 -1.1529658e-05 8.3077145e-05)
(0.00010308986 -1.0055784e-05 9.5719521e-05)
(8.4953163e-05 -5.8983885e-06 7.4956411e-05)
(0.000107407 -1.1765385e-05 0.00014742933)
(9.6763678e-05 -1.2847599e-05 8.7010091e-05)
(9.0136312e-05 6.4359222e-07 7.5347125e-05)
(9.2168079e-05 -1.0455512e-05 8.133268e-05)
(9.5595539e-05 -1.2931032e-05 8.3521321e-05)
(0.00011197299 -1.1234412e-05 9.8377436e-05)
(0.0001087145 -6.9557918e-08 0.00010369001)
(9.6286588e-05 -1.0396087e-05 8.4602668e-05)
(8.8272924e-05 -1.8588019e-05 7.8776956e-05)
(0.00011865515 -1.1268499e-05 0.000171576)
(0.00011692839 -1.403014e-05 0.0001659824)
(0.00010898915 2.6686613e-07 9.0786896e-05)
(8.8537892e-05 -1.3809175e-05 7.6271972e-05)
(8.5832048e-05 -2.1155243e-05 7.5134283e-05)
(8.3584029e-05 -1.5225235e-05 7.3005988e-05)
(0.00013044456 -1.0039877e-05 0.00012054998)
(8.2884812e-05 -1.5488881e-05 6.4498658e-05)
(0.00010446096 -1.5540109e-05 8.970257e-05)
(0.00011800957 -6.5920526e-06 0.00020377309)
(0.0001123202 2.3542057e-06 0.0001134896)
(8.1025768e-05 -1.3030279e-05 6.5338081e-05)
(0.00013810497 -5.5718033e-06 0.00013063603)
(9.7585549e-05 -1.1970176e-05 8.962874e-05)
(9.2945018e-05 -1.3681384e-05 8.2669528e-05)
(0.00011012175 -1.7521959e-05 0.00010325709)
(0.0001209242 -4.9455015e-06 0.00012091343)
(7.9226868e-05 -1.7087925e-05 6.9648525e-05)
(0.00010845839 -1.1273711e-05 0.00010739365)
(0.00011644709 -2.641891e-06 0.00011503437)
(-5.3214547e-06 5.2420611e-07 -7.406264e-06)
(8.9484564e-05 -1.703692e-05 8.6763024e-05)
(-3.3794472e-06 -2.9769499e-07 -9.0104539e-06)
(0.00010317047 -7.152407e-06 0.00010014524)
(0.00010390384 -1.2635344e-05 9.9335188e-05)
(7.2310695e-05 -2.259256e-05 6.4651389e-05)
(7.9207334e-05 -1.7904212e-05 6.8089993e-05)
(0.00010531778 -6.5170379e-06 0.00016357968)
(7.5521972e-05 -1.5970376e-05 6.3088499e-05)
(-2.3632134e-06 6.6040873e-07 -7.4871907e-06)
(0.00010378835 -1.1760511e-05 0.0001579945)
(0.00011940007 -1.413897e-05 0.00018655895)
(0.00011309341 -8.2804084e-06 0.00016793312)
(-4.3384567e-06 -8.7380264e-07 -8.6168921e-06)
(0.00011827242 2.913538e-05 0.00013631673)
(0.00013776181 -3.4482538e-05 0.00014624907)
(0.00012186838 -3.3187602e-05 0.00013931734)
(0.00013466772 -3.5467132e-05 0.00014491877)
(0.00013636838 -2.485618e-05 0.0001493956)
(0.00013330667 -3.1447173e-05 0.00013419002)
(0.00013887186 -2.6011844e-05 0.00015155841)
(0.0001353402 -2.7030924e-05 0.00013303347)
(0.00013472227 -2.7750622e-05 0.00013087457)
(0.00012169734 -3.1507636e-05 0.00014341472)
(0.00012869665 -2.6098021e-05 0.00013044979)
(0.00012764535 -2.3136989e-05 0.00012773687)
(0.0001253017 -2.3924636e-05 0.00011893067)
(0.00011753004 -2.4634494e-05 0.00010997943)
(0.00012481165 -2.0022629e-05 0.00011950776)
(0.00012603325 -2.2283152e-05 0.00011757108)
(0.00013526519 -3.4533406e-05 0.00013318641)
(0.00013078885 -1.3519981e-05 0.0001183217)
(4.4710003e-06 3.4902017e-06 5.3168414e-06)
(0.00012655436 -1.6090918e-05 0.00011429531)
(0.00011855133 -1.4431761e-05 0.00010944083)
(0.00013517725 -2.4644032e-05 0.00012719438)
(0.00013216501 -9.4085578e-06 0.00011761881)
(1.7131e-05 5.4411552e-06 2.0644159e-05)
(9.9435777e-05 8.2932635e-06 9.4709523e-05)
(-3.9699125e-06 1.5796853e-07 -7.4818802e-06)
(-4.7026774e-06 5.4453427e-07 -7.1799084e-06)
(-4.6977127e-06 -5.0468073e-07 -8.3435793e-06)
(-4.9521203e-06 7.7143823e-08 -8.02509e-06)
(-3.2394008e-06 -5.963172e-07 -8.0880175e-06)
(-3.6257893e-06 1.6265219e-07 -5.8170191e-06)
(-2.8858892e-06 5.8528387e-07 -6.3758358e-06)
(0.00011892724 -1.248785e-05 0.00017845305)
(-3.9502658e-06 8.0501272e-07 -5.334713e-06)
(-3.8370571e-06 -4.3289105e-08 -6.1482399e-06)
(-3.5277081e-06 7.9622416e-07 -5.5998697e-06)
(0.00012590287 -1.0427206e-05 0.00018631809)
(0.00011232872 -9.3745032e-06 0.00016869097)
(-3.3762327e-06 1.3400958e-06 -5.1114781e-06)
(-2.8861959e-06 1.007742e-06 -3.6739518e-06)
(-3.0452415e-06 3.3121977e-07 -5.208825e-06)
(-1.4125972e-06 9.0086646e-07 -3.7387989e-06)
(-1.9709604e-06 1.2936044e-06 -2.8861843e-06)
(-3.8748028e-06 9.5635676e-07 -7.8320135e-06)
(0.00010894768 -1.0732383e-05 0.00016539219)