/*--------------------------------*- C++ -*----------------------------------*\
  =========                 |
  \\      /  F ield         | OpenFOAM: The Open Source CFD Toolbox
   \\    /   O peration     | Website:  https://openfoam.org
    \\  /    A nd           | Version:  11
     \\/     M anipulation  |
\*---------------------------------------------------------------------------*/
FoamFile
{
    format      ascii;
    class       volVectorField;
    location    "10000";
    object      wallShearStress;
}
// * * * * * * * * * * * * * * * * * * * * * * * * * * * * * * * * * * * * * //

dimensions      [0 2 -2 0 0 0 0];

internalField   uniform (0 0 0);

boundaryField
{
    wall-fluid_domain
    {
        type            calculated;
        value           nonuniform List<vector> 
50462
(
(0.000508166 -4.0789049e-05 0.0003871885)
(0.00057093451 -6.0258817e-05 0.000458033)
(0.00056918256 -4.066194e-05 0.00035025477)
(0.00052713989 -3.1633483e-05 0.00032213465)
(0.00051432511 7.1362761e-05 0.00035764632)
(0.00060374201 -2.0989914e-05 0.00059152172)
(0.00057273318 -3.3089223e-05 0.00055867697)
(0.00061513544 -1.0860467e-05 0.00061699217)
(0.00062830233 -4.4771595e-05 0.00039537175)
(0.00057671625 -3.1099922e-05 0.00056808122)
(0.00066610609 1.3309525e-05 0.0006673505)
(0.00053671609 -2.3383194e-05 0.00033133993)
(0.00055814239 4.6759507e-06 0.00057324145)
(0.00058238633 1.9987651e-05 0.0005815382)
(0.00058345502 1.9226713e-05 0.00057771907)
(0.00066162831 1.2451268e-05 0.00066063149)
(0.00054137978 -1.8919288e-05 0.00033650158)
(0.00052722758 -5.5123589e-08 0.0005427914)
(0.00059789783 -7.6542345e-06 0.00060586658)
(0.0005933771 -1.3851921e-05 0.00036479092)
(0.00060248128 2.3881925e-05 0.00059901278)
(0.00038273725 -1.9638171e-05 0.00024058274)
(0.00052368855 4.1597603e-06 0.0005340753)
(0.00051107336 -1.1998846e-05 0.00033677952)
(0.00064906161 1.4202868e-05 0.0006587407)
(0.00047324764 -1.1316015e-05 0.00029965146)
(0.00060528052 2.2830504e-05 0.0005961085)
(0.00053322838 -3.8855172e-05 0.00051501439)
(0.00058986157 3.3993331e-05 0.00058489465)
(0.00050695133 -1.7058955e-06 0.00051307528)
(0.00052038495 -2.2946224e-05 0.00035965311)
(0.00066931994 1.8350008e-05 0.00067352212)
(0.0006888375 1.4903432e-05 0.00069112331)
(0.00048920327 -1.0205152e-05 0.00031724245)
(0.00054162906 1.9871265e-05 0.00053984986)
(0.00053787198 4.1223964e-06 0.00054631469)
(0.00069326687 1.2920491e-05 0.00068864282)
(0.00054472744 3.6003762e-06 0.00054109003)
(0.00070625277 2.8397833e-05 0.00070151931)
(0.0006663046 2.041054e-05 0.00067574891)
(0.00056688943 -2.1434251e-05 0.00034189903)
(0.00050286587 -3.6813027e-06 0.00032521078)
(0.00050764659 -1.1586107e-05 0.00033745239)
(0.00069614508 3.0474788e-05 0.00069815067)
(0.00053233155 2.7337327e-05 0.00053214267)
(0.00068905253 3.5902618e-05 0.00068722038)
(0.00059768237 1.4657184e-05 0.00061422286)
(0.0006154238 1.8657345e-05 0.00061743883)
(0.0006401683 3.4622725e-05 0.00062898942)
(0.00054114887 2.5770292e-05 0.00052782509)
(0.0006106424 -6.5905198e-05 0.00048221284)
(0.0004996921 -1.3483445e-05 0.00029832467)
(0.00060061399 2.4149353e-05 0.00060680805)
(0.00047534155 -1.078049e-05 0.00030477489)
(0.00064888167 -6.4272335e-05 0.00061055946)
(0.0004707144 5.6660708e-06 0.00028442064)
(0.00062286602 -5.4523908e-06 0.00037834258)
(0.00066401314 -6.88279e-05 0.00061276413)
(0.00062815541 -4.1704246e-06 0.00038201259)
(0.00083653799 -5.3026069e-05 0.00050453728)
(0.00061292182 -4.7065041e-05 0.00038624037)
(0.00040598013 -1.5437076e-05 0.00025144845)
(0.00047444376 -2.1507209e-05 0.00034498118)
(0.00056555266 -3.67194e-05 0.0004262399)
(0.00056823097 -2.5197917e-05 0.00035325936)
(0.00087575193 -2.9600577e-05 0.00051355546)
(0.00058999185 -2.8860074e-05 0.00035973117)
(0.0004840369 -4.0521667e-07 0.00029772508)
(0.00047086846 -6.9212237e-06 0.00028736209)
(0.00057035939 7.7360841e-06 0.00058658458)
(0.00068137451 -7.6280758e-05 0.00060582522)
(0.0006528512 -7.1605686e-05 0.00058925677)
(0.00061118154 -6.0747413e-05 0.00052832287)
(0.00060966169 -6.6690895e-05 0.00052648122)
(0.00066446552 1.4833349e-05 0.00065730823)
(0.00054280515 1.9478973e-05 0.00054106934)
(0.00058498333 -6.1271107e-05 0.00045417387)
(0.00057088804 -6.6655748e-05 0.00047374774)
(0.0005215139 -4.0883068e-05 0.00040755573)
(0.00047111597 -3.0509572e-05 0.00035104789)
(0.00064234534 1.0844567e-05 0.00065678091)
(0.00050591514 -4.6845023e-05 0.00039444303)
(0.00053434745 -1.6198176e-05 0.00053664617)
(0.00060111345 -3.6661664e-06 0.00036518621)
(0.00065301811 1.5545825e-05 0.0006500097)
(0.00053978984 -1.6458025e-05 0.00053326274)
(0.00061940178 -9.7553408e-06 0.0006139931)
(0.00054623269 -1.0791815e-06 0.0005572702)
(0.00041965476 -8.5530668e-06 0.0004343999)
(0.00053938969 3.5958289e-07 0.00054457893)
(0.00056558445 4.4604053e-06 0.00056537149)
(0.00045114743 3.8499227e-05 0.00029339377)
(0.0004432116 3.1034809e-05 0.00028883133)
(0.00050259383 1.829292e-06 0.00051550565)
(0.00056450115 1.08482e-05 0.00057829298)
(0.00055150655 -1.1736551e-06 0.00055508701)
(0.00045662219 8.0837149e-06 0.00045801416)
(0.00058688524 1.5838905e-05 0.00059040942)
(0.00050672859 7.5400774e-06 0.00050857338)
(0.00059682073 1.6539466e-05 0.00059680421)
(0.000572007 1.8015446e-05 0.00058479624)
(0.00048425662 3.8140624e-05 0.0003126089)
(0.00045659756 4.6985911e-05 0.0002964149)
(0.0005221191 5.0899577e-05 0.00034293337)
(0.00050095758 -5.0438999e-05 0.000399067)
(0.00056767948 -4.4385932e-05 0.00043723787)
(0.00052364032 5.938984e-05 0.00034412024)
(0.00050295113 -1.0382949e-05 0.00034921648)
(0.00055238927 4.3540643e-05 0.00034300684)
(0.00049376657 4.0367795e-05 0.00031339515)
(0.0005019112 3.4149191e-05 0.00031578281)
(0.00055071615 5.271407e-05 0.00034416889)
(0.00051172079 -4.6303397e-05 0.00040528514)
(0.00058381129 -5.4368483e-05 0.0005645971)
(0.00044064797 -4.6039982e-05 0.00035809942)
(0.00057042743 -3.9924566e-05 0.00044405073)
(0.0004593479 -2.2850299e-05 0.00033122301)
(0.0006711906 -7.3812599e-05 0.00060589853)
(0.00057715098 -5.8420091e-05 0.00052067844)
(0.00057136773 -5.7338618e-05 0.0005156128)
(0.00058079576 -5.5249335e-05 0.0005152751)
(0.00059994483 -5.6411684e-05 0.00056156818)
(0.00059071966 -5.5199262e-05 0.00055677846)
(0.00052232047 -2.6897644e-05 0.0003888907)
(0.00061128953 -6.5458338e-05 0.00056156494)
(0.00052934159 -5.1629005e-05 0.00045459166)
(0.00057923743 -5.4130517e-05 0.00053499647)
(0.00065134545 -4.7389676e-05 0.00062494901)
(0.00059543829 -4.9615101e-05 0.0005454143)
(0.00058675645 -5.375713e-05 0.00051749465)
(0.00061912792 -5.5980409e-05 0.00057268958)
(0.00060860022 -6.8370613e-05 0.00055434993)
(0.00052887802 -5.3695038e-05 0.00045705712)
(0.00059127443 -6.4486045e-05 0.00055712989)
(0.00051223243 -5.2140453e-05 0.00042242817)
(0.0005821255 -2.8573984e-05 0.00056582883)
(0.00060885608 -2.2068111e-05 0.00060678604)
(0.00058868425 -5.1905104e-05 0.00051708373)
(0.00051333066 -5.1848083e-05 0.00042150212)
(0.00050119084 -4.6793107e-05 0.00042659989)
(0.00053844524 -4.4694438e-05 0.00043556926)
(0.00050387042 -5.2852213e-05 0.00043948265)
(0.00052014328 -6.0272819e-05 0.00043751635)
(0.00050585349 -3.1486896e-05 0.0003954058)
(0.00063764713 -4.9931914e-05 0.00061262027)
(0.00050936138 -3.1022673e-05 0.00039795762)
(0.00093449934 -7.9046644e-05 0.00079242839)
(0.00051709173 -5.0762561e-05 0.00042920556)
(0.00053069559 -6.3256266e-06 0.0005257064)
(0.00056696901 -5.9859705e-05 0.00047777695)
(0.00056853438 -4.8477892e-05 0.00046555134)
(0.00063569301 -5.3830231e-05 0.00057458883)
(0.00055372144 -4.9598449e-05 0.00045709107)
(0.00055641685 1.8382243e-06 0.00055242081)
(0.00051509956 -4.3678812e-05 0.00043334937)
(0.00057635564 -5.1314355e-05 0.0005427226)
(0.00048222826 -3.7626052e-05 0.00039430136)
(0.00061950609 -5.8486793e-05 0.00056421473)
(0.0005923123 -4.6222358e-05 0.00047344488)
(0.00092233219 -9.7691851e-05 0.00078973066)
(0.00048819757 -4.4087455e-05 0.00040826533)
(0.00057599159 -3.4072096e-05 0.00045966988)
(0.00047946387 -4.4884913e-05 0.00041806923)
(0.00058158062 -3.0256118e-05 0.00046460787)
(0.00051482583 -4.803182e-05 0.00044303501)
(0.00065789645 -4.4913359e-05 0.00062393336)
(0.00059706989 -5.5138273e-05 0.00057109672)
(0.00051931126 -2.33657e-05 0.00038460525)
(0.00054997583 -4.0244743e-05 0.0004569447)
(0.00053502471 -4.4156297e-05 0.00044733102)
(0.0009035268 -8.2715509e-05 0.00079581761)
(0.00061918196 -5.5354996e-05 0.00057483895)
(0.00053735811 -4.7744511e-05 0.00045959403)
(0.00041950153 -3.6380795e-05 0.00036291664)
(0.00057459898 -4.7564117e-05 0.00053618523)
(0.00055063557 -3.4764226e-05 0.00054769815)
(0.00042062652 -3.8152451e-05 0.00037185174)
(0.00055119674 -4.6289329e-05 0.00048417305)
(0.00051161204 -1.5201493e-05 0.00037359125)
(0.00046785885 -2.1883068e-05 0.00036930143)
(0.00058194772 -3.0809063e-05 0.00046407267)
(0.00057620998 -4.7380463e-05 0.00054534329)
(0.00059066887 -4.512899e-05 0.00054604848)
(0.00046013237 -2.5315111e-05 0.00035919312)
(0.0005198648 -3.0840818e-05 0.00041484362)
(0.00060311651 -1.8357214e-05 0.00060262859)
(0.00055759621 -4.6686253e-05 0.00053966282)
(0.00060220427 -4.7213719e-05 0.00056092823)
(0.00050985542 -1.0077225e-05 0.00051717181)
(0.00046041797 -1.8875285e-05 0.00034501925)
(0.0005502913 -3.8694583e-05 0.00052355573)
(0.00052892764 -3.7404228e-05 0.00051279772)
(0.00051601297 -5.3762581e-06 0.0005239785)
(0.00063640007 -5.5466625e-05 0.00057541773)
(0.00056208578 -4.639794e-05 0.00049214056)
(0.00055850448 -4.6041327e-05 0.00054476575)
(0.00064161557 -4.9143903e-05 0.0005740897)
(0.00043727677 -2.5369371e-05 0.00043979231)
(0.00045209501 -1.5287861e-05 0.00033825485)
(0.00054588797 -4.4397306e-05 0.0004815044)
(0.00055332266 -3.8707943e-05 0.00054223498)
(0.00043014384 -8.7267239e-06 0.00032970025)
(0.00057804477 -4.7448227e-05 0.00052945159)
(0.00055626127 -2.6961834e-05 0.00053830814)
(0.00037207884 -2.2741625e-05 0.00029815798)
(0.00044598557 -1.3818747e-05 0.00034917923)
(0.00044443664 -2.2813201e-05 0.00043639519)
(0.00051506654 -4.5920032e-06 0.00037201837)
(0.00046845762 -1.5743541e-05 0.00033363381)
(0.00042875853 -1.3079784e-05 0.0003337901)
(0.00045192647 9.2082859e-06 0.00046130504)
(0.00053870997 1.6857459e-05 0.00053247029)
(0.00044395772 -2.3559854e-05 0.00035526221)
(0.00037727017 -2.7412305e-05 0.00031278087)
(0.00054803304 -2.9188982e-05 0.00054138123)
(0.00058270598 -2.2468323e-05 0.00058898904)
(0.00060650065 -4.2924032e-05 0.00056048414)
(0.00049130955 -1.5806689e-05 0.00039599687)
(0.00051333673 -1.8093194e-05 0.00050458069)
(0.00066478002 -3.7650639e-05 0.00064116735)
(0.00062863341 -4.7249325e-05 0.00056669823)
(0.00057905514 -4.303581e-05 0.00052627189)
(0.00067813121 -3.3498794e-05 0.00065625867)
(0.00051258277 -1.8266491e-05 0.00051676744)
(0.00051770145 -1.0203723e-05 0.00051416224)
(0.00051940448 -4.0412539e-05 0.00049088603)
(0.00058148578 -3.8072029e-05 0.00055457095)
(0.0005438279 -1.518372e-05 0.00053767584)
(0.00068845675 -3.4292472e-05 0.00066254102)
(0.00054652151 -2.0719676e-05 0.00054630427)
(0.0005836174 -1.4056366e-05 0.00057954643)
(0.00061603457 -1.9598401e-05 0.00060291819)
(0.00062879426 -4.4857739e-05 0.00056448199)
(0.0005973688 -2.6494283e-05 0.00059777012)
(0.00055926382 -5.5748455e-05 0.00050115157)
(0.00061379679 -6.9370877e-06 0.00061491411)
(0.00068610345 -3.448084e-05 0.00065948836)
(0.00060831212 -5.4220147e-06 0.00060345512)
(0.00058290861 -5.7317745e-06 0.00057533582)
(0.00062209962 1.8085562e-06 0.00062081651)
(0.00061407953 -3.5533991e-05 0.00059406261)
(0.00058296253 -3.5016835e-05 0.00055117633)
(0.00046713108 -1.9811182e-05 0.00046091726)
(0.00067663076 -4.4902997e-05 0.000638338)
(0.00051671366 -3.5099669e-05 0.00048603331)
(0.00060863894 -3.9771591e-05 0.00058529448)
(0.00059483441 -4.1724436e-05 0.00058983232)
(0.00046608029 -2.1010034e-05 0.00046955223)
(0.00066670515 -4.4642669e-05 0.00062893594)
(0.00054553557 -4.6287905e-05 0.00050057694)
(0.00064118392 -4.4215624e-05 0.00061859199)
(0.00050026135 -4.3175809e-05 0.00047738305)
(0.0006406793 -4.7536547e-05 0.00060770122)
(0.00051851555 -3.0369056e-05 0.00049503896)
(0.00058832207 -3.8828316e-05 0.00054343121)
(0.00058757581 -1.3753772e-05 0.00057620376)
(0.00059179069 -1.9974397e-05 0.00059705327)
(0.00058330613 -3.6861118e-05 0.00055589502)
(0.0005618775 -3.5621857e-05 0.00052457325)
(0.00049576828 -2.4960043e-05 0.00047899125)
(0.00057708856 -3.3171242e-05 0.00054941192)
(0.00064222227 -3.6244501e-05 0.00061779397)
(0.00052023695 -3.9836767e-05 0.0004622622)
(0.0005789802 -3.1769186e-06 0.00058597347)
(0.00058518799 -3.3356621e-05 0.00056017021)
(0.0006076146 5.9410507e-06 0.00061575678)
(0.00054193612 -1.4066353e-05 0.00053576139)
(0.00056400179 1.1706173e-05 0.00055975542)
(0.00055935503 -4.1072716e-05 0.00053456825)
(0.00063406385 -3.5513068e-05 0.0006113876)
(0.00057571149 -3.3145214e-05 0.00055595457)
(0.00055194415 -4.1029358e-05 0.00052178195)
(0.00048441015 -3.4266771e-05 0.00045100805)
(0.00058455584 -3.6691352e-05 0.00053539245)
(0.0004709617 -3.6317382e-05 0.00045301293)
(0.0005859423 -4.6314551e-05 0.00054348142)
(0.00063301178 -8.6578383e-06 0.00064165607)
(0.00063633171 -1.4656827e-06 0.00063490587)
(0.00058149086 -4.4082106e-05 0.00053700551)
(0.00047471098 -3.7201386e-05 0.00044849553)
(0.00054604608 -3.9821691e-05 0.00049395608)
(0.00051073731 -3.6207069e-05 0.00046263417)
(0.00064912366 -2.3140051e-05 0.00063365245)
(0.00057597495 2.3473007e-06 0.00057794788)
(0.00057771431 -4.3880992e-05 0.00052284149)
(0.00054208742 -4.1857814e-05 0.0004951855)
(0.00049293732 -2.5640111e-05 0.00048756833)
(0.00050604328 -3.2907711e-05 0.00048024682)
(0.00042035623 -3.1679798e-05 0.00038808727)
(0.00054300762 -1.1461274e-05 0.00054747676)
(0.00042004239 -3.4067706e-05 0.00039833874)
(0.00051394525 -3.93923e-05 0.00046800255)
(0.00060111668 -4.2342676e-05 0.00054126656)
(0.00051958366 -2.9722821e-05 0.00049411581)
(0.0006126464 6.1523123e-06 0.00061473971)
(0.00044162749 -2.4717205e-05 0.00043306755)
(0.00066085433 -2.2801305e-05 0.00064228661)
(0.00055030697 -1.1739866e-05 0.00054214088)
(0.0005412389 -3.7055301e-05 0.00048241959)
(0.00052502359 -3.7558696e-05 0.0004804394)
(0.00053945424 -5.9465329e-06 0.00053583068)
(2.4153682e-06 7.6252258e-05 -7.984008e-06)
(0.00051777731 -2.602234e-05 0.00049118933)
(0.00050736447 -3.9722541e-05 0.00048018116)
(0.00060217429 6.2668051e-06 0.00061001368)
(0.00052131828 -2.918371e-05 0.00049247921)
(0.00051398852 1.3318071e-05 0.00052688274)
(0.00061173114 1.8589598e-06 0.00061541242)
(0.00060017326 -3.8681462e-05 0.00053828358)
(0.00059325041 -4.4353937e-05 0.0005385646)
(0.00060865626 4.5728229e-06 0.00060467308)
(0.00060735698 1.1738371e-05 0.0006056865)
(0.0005415931 -1.0164305e-05 0.00054505106)
(0.00055650752 -9.1189025e-08 0.00055335334)
(-6.4825442e-06 5.1689184e-05 3.6599777e-05)
(0.00053066091 1.5676847e-05 0.0005252644)
(0.00074206885 2.0629873e-05 0.00073902617)
(0.00050178229 -4.2490023e-05 0.00044946136)
(0.00053079622 1.417319e-05 0.00053305475)
(0.0006447628 1.2021196e-05 0.00063644502)
(0.00055355481 1.3100865e-06 0.00055794433)
(0.00057899952 -4.1478658e-05 0.0005072424)
(0.00051796282 1.4968504e-05 0.00052556357)
(0.00051999 1.5329486e-05 0.00052021125)
(0.0006309339 1.3571358e-05 0.00062648671)
(0.00053168648 -6.5537212e-06 0.00052190726)
(0.00054312021 -4.1899198e-05 0.00048726741)
(0.00075034331 2.4269911e-05 0.0007380828)
(0.00064313517 1.0539477e-05 0.00063367974)
(0.00056831981 8.4746247e-07 0.00056302009)
(0.00041853818 -3.6619118e-05 0.00038089982)
(0.00050758269 -1.8901798e-06 0.00050558728)
(0.00054004127 1.4084304e-05 0.00054487216)
(0.00058258415 1.9928434e-05 0.0005827888)
(0.00056388776 3.2706366e-06 0.00056828018)
(0.00053977845 1.1489435e-05 0.00053510872)
(0.00054045052 1.4838536e-05 0.00053594512)
(0.00058564078 -4.3189964e-05 0.00051353764)
(0.00050562543 -3.0526467e-06 0.00050006689)
(0.00058721906 -3.8547867e-05 0.00050997916)
(0.00062648445 6.3310905e-06 0.00061451683)
(0.00058754818 -3.8773799e-05 0.0005115105)
(0.0004940228 -5.2968999e-07 0.00049207382)
(0.00050664614 -3.5634248e-05 0.0004698595)
(0.00061173571 -1.5750482e-05 0.00060125368)
(0.00049468438 -1.0067875e-06 0.00048751581)
(0.00058214637 -4.0955302e-05 0.00053011827)
(0.00043133724 1.8375347e-05 0.00043496461)
(0.00053729602 1.3298479e-05 0.00053938432)
(0.00053115803 -4.1392936e-05 0.0004696795)
(0.00062632444 1.1371469e-05 0.00062290548)
(0.00060604737 2.1185581e-05 0.00058995203)
(0.00051879604 -3.6079265e-05 0.00044820268)
(0.00064635167 -2.8715057e-05 0.00062146742)
(0.00056928917 2.8442356e-05 0.00054958169)
(0.00052335766 5.2823736e-06 0.00052128021)
(0.00063400382 1.4730775e-05 0.00061979632)
(0.00051008125 -1.8678612e-05 0.00042000714)
(0.000487579 -2.3681616e-05 0.00040035235)
(0.00052195668 8.3210226e-06 0.00051438752)
(0.00054438926 -3.513154e-05 0.00047766357)
(0.0006588484 -2.8586843e-05 0.00063090513)
(0.00050294798 -3.5988381e-05 0.00046375171)
(0.00048246845 -3.6288165e-05 0.00046516441)
(0.00061463897 2.0101677e-05 0.00060338572)
(0.00064088422 -2.7105395e-05 0.00061654245)
(0.00053152795 1.4223893e-05 0.00052493587)
(0.00060271786 1.664562e-05 0.00059709465)
(0.00060358629 2.134534e-05 0.00059252047)
(0.0005753436 2.7714906e-05 0.00055514731)
(0.00057417238 2.2584228e-05 0.00057958774)
(0.00060266878 2.141047e-05 0.00058818894)
(0.00066156446 -2.2521552e-05 0.00064141742)
(0.00050129816 2.088781e-05 0.00048731709)
(0.00056173872 -4.5546954e-05 0.00051782043)
(0.00040743388 2.0604914e-05 0.0003990052)
(0.00058104595 2.7451125e-05 0.00055507525)
(0.00053687815 3.1674647e-05 0.00053280009)
(0.00059237606 -3.8150204e-05 0.00051678759)
(0.00052396894 1.4527446e-05 0.00051976288)
(0.00055961973 3.5182375e-05 0.0005434426)
(0.00041284553 -2.9309803e-05 0.00034352152)
(0.00051888333 -3.2958424e-05 0.00044472831)
(0.00048590731 1.7919291e-05 0.00048200347)
(0.00064001294 -4.9884359e-05 0.0005480332)
(0.0005462337 3.4750736e-05 0.00053219099)
(0.00053572844 -1.1109292e-05 0.00053336764)
(0.00041158892 -3.4075572e-05 0.0003379401)
(0.00053910486 -4.2021603e-05 0.00047876289)
(0.00049672083 -2.0510399e-05 0.00048286804)
(0.00049953624 -3.9667937e-05 0.0004384653)
(0.00058901942 -4.1011544e-05 0.00051399817)
(0.00066132944 -5.1174402e-05 0.00056625736)
(0.00061526669 2.8232338e-05 0.00062002799)
(0.00049469016 -3.7095246e-05 0.00045425194)
(0.00049472793 -3.4657605e-05 0.00042045616)
(0.00054977457 -1.0896221e-05 0.00054801985)
(0.00061110723 -1.4838483e-05 0.00059481082)
(0.00055384656 -8.3110696e-06 0.00055371346)
(0.000457771 -3.5203444e-05 0.00042003821)
(0.00058806153 2.3014736e-05 0.00057618862)
(0.00053206686 -2.9642305e-05 0.0004463747)
(0.00052306854 -3.6549303e-05 0.00046907354)
(0.00051163887 -4.2875901e-05 0.0004636392)
(0.00050809756 -3.673405e-05 0.00044251823)
(0.00037686584 -2.2207845e-05 0.00031510056)
(0.00047575669 -3.9267162e-05 0.0004105346)
(0.00050094415 -4.1899218e-05 0.0004398123)
(0.00048998352 -3.5301661e-05 0.00041353166)
(0.00055418755 3.0233767e-05 0.00055229718)
(0.00050555684 -3.5392865e-05 0.00042716821)
(0.00055948857 -3.9188634e-05 0.00049477849)
(0.00052474797 -3.900064e-05 0.00045118657)
(0.00065476406 -2.8452488e-05 0.00063514764)
(0.00063195217 -4.1626069e-05 0.00054595235)
(0.00049741403 -4.0622045e-05 0.00041788473)
(0.00053894818 -4.7089272e-05 0.00048024015)
(0.00065094376 -3.2172826e-05 0.00062932436)
(0.00051589872 -4.3921867e-05 0.00044167599)
(0.00046360871 -3.7206504e-05 0.00038752511)
(0.00053079295 -4.0969372e-05 0.00046610424)
(0.00056406575 -4.2067197e-05 0.00046865952)
(0.00045425235 -3.9184286e-05 0.00037819303)
(0.00049585383 -3.1740348e-05 0.00040608753)
(0.00050483981 -3.6651657e-05 0.00041533931)
(0.000562961 -3.5648937e-05 0.00045981144)
(0.00051489034 -3.9846478e-05 0.00042666522)
(0.00057489234 -3.677197e-05 0.00046641547)
(0.00051457342 -3.7269996e-05 0.00042339201)
(0.00040583672 -3.5765778e-05 0.00034901252)
(0.00051176014 -3.8651156e-05 0.00042231507)
(0.00051681239 -4.1808734e-05 0.00043965502)
(0.00040715336 -3.5138389e-05 0.00033402328)
(0.00048829163 -4.6882684e-05 0.00041664656)
(0.00050570627 -3.9337669e-05 0.00043025612)
(0.00055728841 -4.3914623e-05 0.00046484569)
(0.00049660679 -3.7391754e-05 0.00039869917)
(0.00063253082 -4.4461137e-05 0.00054750671)
(0.00051800854 -3.4420007e-05 0.00043633885)
(0.00053959071 -4.7799236e-05 0.0004485209)
(0.00049430702 -4.7000974e-05 0.00042797364)
(0.00039454404 -3.961375e-05 0.000351475)
(0.00058107438 -3.0244414e-05 0.00047641866)
(0.00052260645 -4.457679e-05 0.00045117462)
(0.00051214614 -4.2226092e-05 0.00044344934)
(0.00050865714 -2.2048454e-05 0.00041060699)
(0.00052523136 -4.5469456e-05 0.00045692659)
(0.00046898952 -3.8504103e-05 0.00040921182)
(0.00053253021 -2.6238566e-05 0.00050851348)
(0.00054150164 -4.076041e-05 0.00044062785)
(0.00046365315 -3.8765149e-05 0.00040569214)
(0.00052193915 -2.2156503e-05 0.00043002873)
(0.0004534934 -3.8334877e-05 0.00040431833)
(0.00052230852 -4.9041898e-05 0.00046605128)
(0.0004082929 -2.5168101e-05 0.00034154747)
(0.00050465682 -3.1680878e-05 0.00042831619)
(0.00066359775 -2.3116106e-05 0.00055194664)
(0.00056230025 -3.9183207e-05 0.00046600376)
(0.00050929793 -2.9682792e-05 0.00040521402)
(0.00057858063 -2.9212676e-05 0.00045815677)
(0.00066655945 -4.701211e-05 0.00056860014)
(0.00048707428 -4.197411e-05 0.00039435502)
(0.00054100132 -3.3369659e-05 0.00045429025)
(0.0004097773 -3.1001792e-05 0.00032637455)
(0.00052097664 -2.6573364e-05 0.00042773898)
(0.00055079931 -2.3027452e-05 0.00044717963)
(0.00053537651 -2.7554738e-05 0.00050375522)
(0.00054327864 -2.8130267e-05 0.00044112978)
(0.00050642654 -2.1969831e-05 0.00039861223)
(0.00048355281 -3.9155737e-05 0.00038642131)
(0.00051565331 -2.0080457e-05 0.00041952085)
(0.00059214036 -1.3517036e-05 0.00047529586)
(0.00049516767 -2.8358301e-05 0.00039426814)
(0.00059615131 -1.4004259e-05 0.00047675647)
(0.00050468397 -3.3810041e-05 0.00043248273)
(0.00051185634 -2.2035546e-05 0.00040688982)
(0.00041253484 -1.9481683e-05 0.00033853085)
(0.00052525639 -1.2139206e-05 0.00042168017)
(0.00061124644 -4.2496794e-05 0.00058196893)
(0.00057990495 -2.358637e-05 0.00045819606)
(0.00051817296 -1.5228398e-05 0.00041231227)
(0.00048095083 -3.9230907e-05 0.00045452302)
(0.00049808638 -2.5825934e-05 0.00040681272)
(0.00053104336 -1.7992193e-05 0.00041767444)
(0.00056143543 -3.2295436e-06 0.0004579065)
(0.00045300218 -3.3174339e-05 0.0004123085)
(0.00041762173 -3.6446573e-05 0.00035873725)
(0.00053163549 -1.2476192e-05 0.00041391394)
(0.00048378379 -2.8761667e-05 0.00040540797)
(0.00068186444 -4.0843773e-05 0.00057251188)
(0.00065051878 -2.2877036e-05 0.00053734118)
(0.00048522936 -3.3856275e-05 0.00037899666)
(0.00051116014 -1.3606382e-05 0.00041352505)
(0.00044373187 -4.0237966e-05 0.00036718389)
(0.00057012794 -1.1497598e-05 0.00046647973)
(0.00060718999 -2.8491608e-05 0.00050129978)
(0.00055973386 -4.1540005e-05 0.00050119626)
(0.00056465595 -6.7994966e-07 0.00045868954)
(0.0005217248 -3.2393314e-05 0.00040424015)
(-1.8407603e-06 8.7843573e-05 3.9788724e-05)
(0.00060863651 -3.4765817e-05 0.00050763676)
(0.00046205983 -1.124706e-05 0.0003808285)
(0.00044915162 -2.3754735e-05 0.00037118273)
(0.00048097243 -2.4008893e-05 0.00039847293)
(0.0005745514 -2.4380683e-05 0.00045516188)
(0.00050839335 9.2427169e-06 0.00042714528)
(0.00050013165 3.454003e-06 0.00042577312)
(0.00045290244 -9.5538485e-06 0.00037660031)
(0.00045344753 -3.6460333e-05 0.00035501011)
(0.00054907931 -3.2042138e-05 0.00045955358)
(0.00047975961 -3.4427513e-05 0.00038418355)
(0.00052707952 -1.4596935e-05 0.0004101691)
(0.00065875967 -4.3410841e-05 0.00055777391)
(0.0005459268 -4.6841429e-05 0.00049081121)
(0.0005205833 -2.0839408e-05 0.0004007217)
(0.00047967919 -2.7682798e-05 0.00037475486)
(0.00044704653 -4.6082864e-05 0.00035985014)
(0.00052165423 -1.9699101e-05 0.00039654089)
(0.00059697416 -3.5259839e-05 0.00050037066)
(0.00052068947 -3.4943091e-05 0.00040313339)
(0.00051604081 -2.549062e-05 0.00039571636)
(0.00040245953 -3.4778234e-05 0.00036570807)
(0.00061561998 -3.3313698e-05 0.00051176834)
(0.00047831837 -2.5142614e-05 0.00036088884)
(0.00045015647 -5.8526013e-06 0.0003563067)
(0.0003735886 -2.6094279e-05 0.00028264813)
(0.00050224669 -1.7875213e-06 0.00039620115)
(0.00052533102 -4.3698451e-05 0.00044744093)
(0.00045684177 -1.8344096e-05 0.00033739705)
(0.00045057012 -2.7445803e-05 0.00033718386)
(0.00037211953 -3.277797e-05 0.00028901621)
(0.00060861136 -3.1539607e-05 0.00050363494)
(0.0006676622 -2.6430923e-05 0.00055258074)
(1.2513522e-05 3.3778677e-05 6.0050182e-05)
(0.00037399557 1.6212051e-06 0.00030939155)
(0.00044453248 -4.2053623e-05 0.00038328066)
(0.00054029968 -2.4523223e-05 0.00040095487)
(0.00067515561 -4.1955928e-05 0.00057579306)
(0.00045881187 -3.0531757e-05 0.00035243205)
(0.000542823 -1.4147285e-05 0.00039226271)
(0.00052690827 -3.9051794e-05 0.00039946821)
(0.00051274086 -2.8153767e-05 0.00037968125)
(0.00053900482 -1.6841626e-05 0.00039633204)
(0.00042372805 6.2286693e-06 0.0003697982)
(0.00052829351 -2.318354e-05 0.00038422705)
(0.00049376851 -3.6271951e-05 0.00045690482)
(0.000526632 -3.898222e-05 0.0004832091)
(0.00050600845 -2.2406413e-05 0.00038887746)
(0.00061144221 -3.8497423e-05 0.00059113868)
(0.00061038593 -4.6977887e-05 0.00052409442)
(0.00048518501 -9.6358835e-06 0.00034066648)
(0.00046290388 -2.1047715e-05 0.00033610161)
(0.0004243689 -2.6904211e-05 0.00032010496)
(0.00047525743 -1.1759102e-05 0.00033118539)
(0.00046168943 -2.86509e-05 0.00034047751)
(0.00046417347 -2.580172e-05 0.000328601)
(0.00048019684 -1.7496202e-05 0.00035901265)
(0.00045343686 1.0564352e-05 0.00036688303)
(0.00042175137 -2.0379759e-05 0.00031091272)
(0.00059599889 -3.7914079e-05 0.00050096804)
(0.0005504391 -1.053329e-05 0.00040367097)
(0.00042340585 -1.6562272e-05 0.00030425572)
(0.0005271212 -5.0143004e-05 0.00048512609)
(0.00045778641 -1.3880181e-05 0.00031116419)
(0.00042139093 -2.334184e-05 0.00031128984)
(0.00051082937 -4.9972025e-05 0.00043261106)
(0.00051443248 -1.6438213e-05 0.00037186284)
(0.00045794228 -3.8557343e-05 0.00035870277)
(0.00034572859 -5.1122702e-06 0.00024689142)
(0.00039715112 -1.7644683e-05 0.00027833816)
(0.00043089796 -3.5682863e-05 0.0003437736)
(0.00046338014 -2.1343638e-06 0.00030987838)
(0.00039606692 -8.6489697e-06 0.00027128417)
(0.00041631344 -3.3507783e-05 0.0003231806)
(0.00042170868 -5.3396788e-06 0.00028670149)
(0.00033939094 -2.5954817e-05 0.0002624385)
(0.00047585335 -3.4746542e-05 0.00037057869)
(0.00061843718 -4.7807413e-05 0.0005335128)
(0.00043442251 2.3257417e-07 0.00035829002)
(0.00034044444 -2.1955384e-05 0.00026397432)
(0.00050540123 -1.2899034e-05 0.00038474707)
(0.00058337973 -3.5981035e-05 0.00048967846)
(0.00066309353 -4.9617639e-05 0.00057160243)
(0.00039993697 -8.0592083e-06 0.00029735613)
(0.00051704423 -3.9246655e-05 0.00047812736)
(0.00048973831 -3.9304878e-05 0.00046560103)
(0.00042660266 -3.378419e-05 0.00040432794)
(0.0005145614 -3.2936941e-05 0.00049217853)
(0.00043569623 -3.0031141e-05 0.00040901709)
(0.0003302713 -1.6050655e-05 0.00024241645)
(0.00042840939 -1.14898e-05 0.00030597607)
(0.00044219367 -1.9012924e-06 0.0002984348)
(0.00059991593 -3.1785078e-05 0.00050528656)
(0.0005051402 -3.1128807e-05 0.00049268688)
(0.00048689032 -2.8936508e-05 0.00047381289)
(0.00050158963 -2.597551e-05 0.00047968984)
(0.00059286 -3.5557455e-05 0.0005030917)
(0.00037971031 -2.1885613e-05 0.00029060552)
(0.00047228042 -2.0101943e-05 0.00045707129)
(0.00063581927 -4.0280215e-05 0.00053688673)
(0.00061613262 -4.3132961e-05 0.00052211092)
(0.00043353757 -4.3770058e-06 0.00029654063)
(0.00047964527 -1.4984003e-05 0.00035550012)
(0.00042141226 -9.3373769e-06 0.0002976302)
(0.00067296636 -3.8796079e-05 0.00057072907)
(0.00033150922 -2.7106189e-05 0.00025035457)
(0.00050914243 -4.6455431e-05 0.0004394955)
(0.00051491772 -3.2642755e-05 0.00040239368)
(0.00047761382 -4.367648e-05 0.00037818676)
(0.00037624396 -2.7505934e-05 0.00029270194)
(0.00047152315 -1.8224443e-05 0.00034687224)
(0.00051246131 -3.2776756e-05 0.00040101372)
(0.00046782239 -2.8314526e-05 0.00034816439)
(0.00042885008 -2.0948343e-05 0.00032414805)
(0.00048642808 -3.8152412e-05 0.00038766571)
(0.0004247151 -1.8840651e-05 0.00031813543)
(0.00046787129 -1.3175552e-05 0.00034744678)
(0.00042349767 -2.4872446e-05 0.00032491317)
(0.00042641625 -2.8970971e-05 0.0003326902)
(0.00040238222 -1.9067474e-05 0.00031098988)
(0.00043480986 -2.5655172e-05 0.00033504456)
(0.00042402191 -2.5861185e-05 0.00032976845)
(0.00046353322 -1.6131901e-05 0.00034164434)
(0.0004896563 -2.9467997e-05 0.00039244089)
(0.00045353327 -2.3706761e-05 0.00034451179)
(0.00046544927 -2.1177496e-05 0.000363864)
(0.00042942762 -3.7853616e-05 0.00034486996)
(0.00049811935 -3.8309766e-05 0.00040047234)
(0.00047762896 -3.2178231e-05 0.0003834637)
(0.0004941066 -3.767111e-05 0.00039945969)
(0.00043593898 -3.2972351e-05 0.00034364044)
(0.00046140008 -2.3292864e-05 0.00035831636)
(0.00041842603 -1.4324073e-05 0.00032313462)
(0.00048825786 -2.9406497e-05 0.0003921557)
(0.00048387892 -1.7317966e-05 0.00037688221)
(0.00047849296 -2.8103717e-05 0.00037528244)
(0.00048380295 -4.05763e-05 0.00040377923)
(0.00045330745 -3.1447359e-05 0.00036031342)
(0.00047610421 -3.2556421e-05 0.00038858731)
(0.00050956007 -3.8698518e-05 0.00042449395)
(0.00045201065 -3.3117217e-05 0.00037158065)
(0.00053687585 -4.4853391e-05 0.0004406844)
(0.00041891541 -2.8837535e-05 0.00034006148)
(0.00046908267 -3.5136644e-05 0.0003766196)
(0.00047156469 -3.4356964e-05 0.00038278545)
(0.0004996618 -4.1382492e-05 0.00042070755)
(0.00049946596 -3.9262971e-05 0.00042061773)
(0.00049985127 -4.1503388e-05 0.00042267491)
(0.00057996449 -4.7090881e-05 0.00049156868)
(0.00044738462 -4.1693706e-05 0.00037409876)
(0.00046025911 -4.5425195e-05 0.00040692674)
(0.00039091445 -3.4504361e-05 0.00034154756)
(0.00057271031 -5.0229054e-05 0.00048430083)
(0.00047468998 -4.2013512e-05 0.00040815983)
(0.00046409565 -4.0717572e-05 0.00038319798)
(0.00048453384 -4.8646465e-05 0.0004217082)